 Entering Link 1 = C:\G09W\l1.exe PID=      2548.
  
 Copyright (c) 1988,1990,1992,1993,1995,1998,2003,2009, Gaussian, Inc.
                  All Rights Reserved.
  
 This is part of the Gaussian(R) 09 program.  It is based on
 the Gaussian(R) 03 system (copyright 2003, Gaussian, Inc.),
 the Gaussian(R) 98 system (copyright 1998, Gaussian, Inc.),
 the Gaussian(R) 94 system (copyright 1995, Gaussian, Inc.),
 the Gaussian 92(TM) system (copyright 1992, Gaussian, Inc.),
 the Gaussian 90(TM) system (copyright 1990, Gaussian, Inc.),
 the Gaussian 88(TM) system (copyright 1988, Gaussian, Inc.),
 the Gaussian 86(TM) system (copyright 1986, Carnegie Mellon
 University), and the Gaussian 82(TM) system (copyright 1983,
 Carnegie Mellon University). Gaussian is a federally registered
 trademark of Gaussian, Inc.
  
 This software contains proprietary and confidential information,
 including trade secrets, belonging to Gaussian, Inc.
  
 This software is provided under written license and may be
 used, copied, transmitted, or stored only in accord with that
 written license.
  
 The following legend is applicable only to US Government
 contracts under FAR:
  
                    RESTRICTED RIGHTS LEGEND
  
 Use, reproduction and disclosure by the US Government is
 subject to restrictions as set forth in subparagraphs (a)
 and (c) of the Commercial Computer Software - Restricted
 Rights clause in FAR 52.227-19.
  
 Gaussian, Inc.
 340 Quinnipiac St., Bldg. 40, Wallingford CT 06492
  
  
 ---------------------------------------------------------------
 Warning -- This program may not be used in any manner that
 competes with the business of Gaussian, Inc. or will provide
 assistance to any competitor of Gaussian, Inc.  The licensee
 of this program is prohibited from giving any competitor of
 Gaussian, Inc. access to this program.  By using this program,
 the user acknowledges that Gaussian, Inc. is engaged in the
 business of creating and licensing software in the field of
 computational chemistry and represents and warrants to the
 licensee that it is not a competitor of Gaussian, Inc. and that
 it will not use this program in any manner prohibited above.
 ---------------------------------------------------------------
  

 Cite this work as:
 Gaussian 09, Revision A.02,
 M. J. Frisch, G. W. Trucks, H. B. Schlegel, G. E. Scuseria, 
 M. A. Robb, J. R. Cheeseman, G. Scalmani, V. Barone, B. Mennucci, 
 G. A. Petersson, H. Nakatsuji, M. Caricato, X. Li, H. P. Hratchian, 
 A. F. Izmaylov, J. Bloino, G. Zheng, J. L. Sonnenberg, M. Hada, 
 M. Ehara, K. Toyota, R. Fukuda, J. Hasegawa, M. Ishida, T. Nakajima, 
 Y. Honda, O. Kitao, H. Nakai, T. Vreven, J. A. Montgomery, Jr., 
 J. E. Peralta, F. Ogliaro, M. Bearpark, J. J. Heyd, E. Brothers, 
 K. N. Kudin, V. N. Staroverov, R. Kobayashi, J. Normand, 
 K. Raghavachari, A. Rendell, J. C. Burant, S. S. Iyengar, J. Tomasi, 
 M. Cossi, N. Rega, J. M. Millam, M. Klene, J. E. Knox, J. B. Cross, 
 V. Bakken, C. Adamo, J. Jaramillo, R. Gomperts, R. E. Stratmann, 
 O. Yazyev, A. J. Austin, R. Cammi, C. Pomelli, J. W. Ochterski, 
 R. L. Martin, K. Morokuma, V. G. Zakrzewski, G. A. Voth, 
 P. Salvador, J. J. Dannenberg, S. Dapprich, A. D. Daniels, 
 O. Farkas, J. B. Foresman, J. V. Ortiz, J. Cioslowski, 
 and D. J. Fox, Gaussian, Inc., Wallingford CT, 2009.
 
 ******************************************
 Gaussian 09:  IA32W-G09RevA.02 11-Jun-2009
                06-Apr-2022 
 ******************************************
 %RWF=ethylene_cofacial_m1.rwf
 %NoSave
 %Chk=ethylene_cofacial_m1.chk
 %NProcShared=4
 Will use up to    4 processors via shared memory.
 %mem=1GB
 ---------------------------------------------------------------------
 # SP B3LYP/6-31++G** IOP(3/33=1) IOP(6/7=3) Symmetry=None MaxDisk=2GB
 ---------------------------------------------------------------------
 1/38=1/1;
 2/12=2,15=1,17=6,18=5,40=1/2;
 3/5=1,6=6,7=1111,11=2,16=1,25=1,30=1,33=1,74=-5/1,2,3;
 4//1;
 5/5=2,38=5/2;
 6/7=3,8=2,9=2,10=2,28=1/1;
 99/5=1,9=1/99;
 --------------------
 ethylene_cofacial_m1
 --------------------
 Symbolic Z-matrix:
 Charge =  0 Multiplicity = 1
 C                    -0.6672    0.        0. 
 C                     0.6672    0.        0. 
 H                    -1.2213   -0.929     0.0708 
 H                    -1.2212    0.929    -0.0708 
 H                     1.2213    0.929    -0.0708 
 H                     1.2213   -0.929     0.0708 
 
                          Input orientation:                          
 ---------------------------------------------------------------------
 Center     Atomic      Atomic             Coordinates (Angstroms)
 Number     Number       Type             X           Y           Z
 ---------------------------------------------------------------------
      1          6           0       -0.667200    0.000000    0.000000
      2          6           0        0.667200    0.000000    0.000000
      3          1           0       -1.221300   -0.929000    0.070800
      4          1           0       -1.221200    0.929000   -0.070800
      5          1           0        1.221300    0.929000   -0.070800
      6          1           0        1.221300   -0.929000    0.070800
 ---------------------------------------------------------------------
                    Distance matrix (angstroms):
                    1          2          3          4          5
     1  C    0.000000
     2  C    1.334400   0.000000
     3  H    1.084011   2.105822   0.000000
     4  H    1.083960   2.105732   1.863388   0.000000
     5  H    2.105822   1.084011   3.072216   2.442500   0.000000
     6  H    2.105822   1.084011   2.442600   3.072136   1.863388
                    6
     6  H    0.000000
 Symmetry turned off by external request.
 Stoichiometry    C2H4
 Framework group  CS[SG(C2H4)]
 Deg. of freedom     9
 Full point group                 CS      NOp   2
 Rotational constants (GHZ):    144.4193876     30.2686045     25.0238913
 Standard basis: 6-31++G(d,p) (6D, 7F)
                         Coordinates in L301:                         
 ---------------------------------------------------------------------
 Center     Atomic      Atomic             Coordinates (Angstroms)
 Number     Number       Type             X           Y           Z
 ---------------------------------------------------------------------
      1          6           0       -0.667200    0.000000    0.000000
      2          6           0        0.667200    0.000000    0.000000
      3          1           0       -1.221300   -0.929000    0.070800
      4          1           0       -1.221200    0.929000   -0.070800
      5          1           0        1.221300    0.929000   -0.070800
      6          1           0        1.221300   -0.929000    0.070800
 ---------------------------------------------------------------------
 FixB: optimizing general contractions.
 Ernie: Thresh=  0.10000D-02 Tol=  0.10000D-05 Strict=F.
 IA=     1 NL=   1 NS=   0.
 IA=     1 L=0 SC=0 ISt=    0 NBk=    0 NP=    0 IndPr=    0.
 IA=     1 NL=   3 NS=   2.
 IA=     1 L=1 SC=0 ISt=    0 NBk=    0 NP=    0 IndPr=    0.
 IA=     1 NL=   1 NS=   1.
 IA=     1 L=2 SC=2 ISt=    0 NBk=    0 NP=    0 IndPr=    0.
 IA=     2 NL=   1 NS=   0.
 IA=     2 L=0 SC=0 ISt=    0 NBk=    0 NP=    0 IndPr=    0.
 IA=     2 NL=   3 NS=   2.
 IA=     2 L=1 SC=0 ISt=    0 NBk=    0 NP=    0 IndPr=    0.
 IA=     2 NL=   1 NS=   1.
 IA=     2 L=2 SC=2 ISt=    0 NBk=    0 NP=    0 IndPr=    0.
 IA=     3 NL=   3 NS=   2.
 IA=     3 L=0 SC=0 ISt=    0 NBk=    0 NP=    0 IndPr=    0.
 IA=     3 NL=   1 NS=   1.
 IA=     3 L=1 SC=1 ISt=    0 NBk=    0 NP=    0 IndPr=    0.
 IA=     4 NL=   3 NS=   2.
 IA=     4 L=0 SC=0 ISt=    0 NBk=    0 NP=    0 IndPr=    0.
 IA=     4 NL=   1 NS=   1.
 IA=     4 L=1 SC=1 ISt=    0 NBk=    0 NP=    0 IndPr=    0.
 IA=     5 NL=   3 NS=   2.
 IA=     5 L=0 SC=0 ISt=    0 NBk=    0 NP=    0 IndPr=    0.
 IA=     5 NL=   1 NS=   1.
 IA=     5 L=1 SC=1 ISt=    0 NBk=    0 NP=    0 IndPr=    0.
 IA=     6 NL=   3 NS=   2.
 IA=     6 L=0 SC=0 ISt=    0 NBk=    0 NP=    0 IndPr=    0.
 IA=     6 NL=   1 NS=   1.
 IA=     6 L=1 SC=1 ISt=    0 NBk=    0 NP=    0 IndPr=    0.
 LdAtmC:  AtmChg=     6.000000     6.000000     1.000000     1.000000     1.000000
 LdAtmC:  AtmChg=     1.000000
 AtZEff=     -3.6000000     -3.6000000     -1.0000000     -1.0000000     -1.0000000
 AtZEff=     -1.0000000
 Integral buffers will be    262144 words long.
 Raffenetti 2 integral format.
 Two-electron integral symmetry is turned off.
    62 basis functions,    96 primitive gaussians,    62 cartesian basis functions
     8 alpha electrons        8 beta electrons
       nuclear repulsion energy        33.3693329205 Hartrees.
 NAtoms=    6 NActive=    6 NUniq=    6 SFac= 7.50D-01 NAtFMM=   80 NAOKFM=F Big=F
 NPDir=0 NMtPBC=     1 NCelOv=     1 NCel=       1 NClECP=     1 NCelD=      1
         NCelK=      1 NCelE2=     1 NClLst=     1 CellRange=     0.0.
 One-electron integrals computed using PRISM.
 Entering OneElI...
 Calculate overlap and kinetic energy integrals
    NBasis =  62  MinDer = 0  MaxDer = 0
 Requested accuracy = 0.1000D-12
 PrsmSu:  NPrtUS=   4 ThrOK=T IAlg=1
 PRISM was handed    33536518 working-precision words and   351 shell-pairs
 PRISM was handed    33536518 working-precision words and   351 shell-pairs
 PRISM was handed    33536518 working-precision words and   351 shell-pairs
 PRISM was handed    33536518 working-precision words and   351 shell-pairs
 IPart=  3 NShTot=          83 NBatch=          26 AvBLen=         3.2
 IPart=  0 NShTot=          92 NBatch=          32 AvBLen=         2.9
 IPart=  2 NShTot=          85 NBatch=          28 AvBLen=         3.0
 IPart=  1 NShTot=          91 NBatch=          31 AvBLen=         2.9
 *** Overlap *** 
                1             2             3             4             5 
      1  0.100000D+01
      2  0.219059D+00  0.100000D+01
      3  0.000000D+00  0.000000D+00  0.100000D+01
      4  0.000000D+00  0.000000D+00  0.000000D+00  0.100000D+01
      5  0.000000D+00  0.000000D+00  0.000000D+00  0.000000D+00  0.100000D+01
      6  0.184261D+00  0.812273D+00  0.000000D+00  0.000000D+00  0.000000D+00
      7  0.000000D+00  0.000000D+00  0.569754D+00  0.000000D+00  0.000000D+00
      8  0.000000D+00  0.000000D+00  0.000000D+00  0.569754D+00  0.000000D+00
      9  0.000000D+00  0.000000D+00  0.000000D+00  0.000000D+00  0.569754D+00
     10  0.697718D-01  0.402091D+00  0.000000D+00  0.000000D+00  0.000000D+00
     11  0.000000D+00  0.000000D+00  0.164679D+00  0.000000D+00  0.000000D+00
     12  0.000000D+00  0.000000D+00  0.000000D+00  0.164679D+00  0.000000D+00
     13  0.000000D+00  0.000000D+00  0.000000D+00  0.000000D+00  0.164679D+00
     14  0.791027D-01  0.710235D+00  0.000000D+00  0.000000D+00  0.000000D+00
     15  0.791027D-01  0.710235D+00  0.000000D+00  0.000000D+00  0.000000D+00
     16  0.791027D-01  0.710235D+00  0.000000D+00  0.000000D+00  0.000000D+00
     17  0.000000D+00  0.000000D+00  0.000000D+00  0.000000D+00  0.000000D+00
     18  0.000000D+00  0.000000D+00  0.000000D+00  0.000000D+00  0.000000D+00
     19  0.000000D+00  0.000000D+00  0.000000D+00  0.000000D+00  0.000000D+00
     20  0.570152D-05  0.205168D-01  0.445817D-01  0.000000D+00  0.000000D+00
     21  0.205168D-01  0.208939D+00  0.288165D+00  0.000000D+00  0.000000D+00
     22 -0.445817D-01 -0.288165D+00 -0.337475D+00  0.000000D+00  0.000000D+00
     23  0.000000D+00  0.000000D+00  0.000000D+00  0.119568D+00  0.000000D+00
     24  0.000000D+00  0.000000D+00  0.000000D+00  0.000000D+00  0.119568D+00
     25  0.654852D-01  0.364208D+00  0.254963D+00  0.000000D+00  0.000000D+00
     26 -0.130791D+00 -0.565239D+00 -0.166280D+00  0.000000D+00  0.000000D+00
     27  0.000000D+00  0.000000D+00  0.000000D+00  0.246159D+00  0.000000D+00
     28  0.000000D+00  0.000000D+00  0.000000D+00  0.000000D+00  0.246159D+00
     29  0.529528D-01  0.311115D+00  0.670660D-01  0.000000D+00  0.000000D+00
     30 -0.553523D-01 -0.302453D+00  0.612119D-01  0.000000D+00  0.000000D+00
     31  0.000000D+00  0.000000D+00  0.000000D+00  0.127081D+00  0.000000D+00
     32  0.000000D+00  0.000000D+00  0.000000D+00  0.000000D+00  0.127081D+00
     33  0.557018D-01  0.341180D+00  0.418609D+00  0.000000D+00  0.000000D+00
     34  0.121406D-02  0.960381D-01  0.146062D+00  0.000000D+00  0.000000D+00
     35  0.121406D-02  0.960381D-01  0.146062D+00  0.000000D+00  0.000000D+00
     36  0.000000D+00  0.000000D+00  0.000000D+00 -0.188838D+00  0.000000D+00
     37  0.000000D+00  0.000000D+00  0.000000D+00  0.000000D+00 -0.188838D+00
     38  0.000000D+00  0.000000D+00  0.000000D+00  0.000000D+00  0.000000D+00
     39  0.336115D-01  0.277475D+00 -0.190738D+00 -0.319790D+00  0.243715D-01
     40  0.928724D-01  0.478850D+00 -0.135898D+00 -0.227846D+00  0.173643D-01
     41  0.519797D-01  0.307877D+00 -0.229098D-01 -0.384104D-01  0.292729D-02
     42  0.243546D-01  0.151091D+00  0.192987D-01 -0.227403D+00  0.173306D-01
     43  0.408328D-01  0.253319D+00 -0.227403D+00 -0.226330D+00  0.290564D-01
     44 -0.311191D-02 -0.193057D-01  0.173306D-01  0.290564D-01  0.152718D+00
     45  0.336190D-01  0.277508D+00 -0.190729D+00  0.319833D+00 -0.243748D-01
     46  0.928781D-01  0.478873D+00 -0.135880D+00  0.227857D+00 -0.173652D-01
     47  0.519804D-01  0.307881D+00 -0.229060D-01  0.384109D-01 -0.292733D-02
     48  0.243587D-01  0.151084D+00  0.193493D-01  0.227400D+00 -0.173304D-01
     49 -0.408470D-01 -0.253352D+00  0.227400D+00 -0.226369D+00  0.290613D-01
     50  0.311299D-02  0.193082D-01 -0.173304D-01  0.290613D-01  0.152742D+00
     51  0.531796D-04  0.884794D-02  0.168996D-01  0.831332D-02 -0.633567D-03
     52  0.151619D-01  0.115201D+00  0.105703D+00  0.519979D-01 -0.396281D-02
     53  0.343004D-01  0.208140D+00  0.526158D-01  0.258830D-01 -0.197257D-02
     54 -0.429283D-05 -0.809176D-02 -0.166602D-01 -0.918359D-02  0.699890D-03
     55 -0.211175D-05 -0.398054D-02 -0.918359D-02 -0.250913D-02  0.344293D-03
     56  0.000000D+00  0.303361D-03  0.699890D-03  0.344293D-03  0.198227D-02
     57  0.531796D-04  0.884794D-02  0.168996D-01 -0.831332D-02  0.633567D-03
     58  0.151619D-01  0.115201D+00  0.105703D+00 -0.519979D-01  0.396281D-02
     59  0.343004D-01  0.208140D+00  0.526158D-01 -0.258830D-01  0.197257D-02
     60 -0.429283D-05 -0.809176D-02 -0.166602D-01  0.918359D-02 -0.699890D-03
     61  0.211175D-05  0.398054D-02  0.918359D-02 -0.250913D-02  0.344293D-03
     62  0.000000D+00 -0.303361D-03 -0.699890D-03  0.344293D-03  0.198227D-02
                6             7             8             9            10 
      6  0.100000D+01
      7  0.000000D+00  0.100000D+01
      8  0.000000D+00  0.000000D+00  0.100000D+01
      9  0.000000D+00  0.000000D+00  0.000000D+00  0.100000D+01
     10  0.727666D+00  0.000000D+00  0.000000D+00  0.000000D+00  0.100000D+01
     11  0.000000D+00  0.588690D+00  0.000000D+00  0.000000D+00  0.000000D+00
     12  0.000000D+00  0.000000D+00  0.588690D+00  0.000000D+00  0.000000D+00
     13  0.000000D+00  0.000000D+00  0.000000D+00  0.588690D+00  0.000000D+00
     14  0.629936D+00  0.000000D+00  0.000000D+00  0.000000D+00  0.323540D+00
     15  0.629936D+00  0.000000D+00  0.000000D+00  0.000000D+00  0.323540D+00
     16  0.629936D+00  0.000000D+00  0.000000D+00  0.000000D+00  0.323540D+00
     17  0.000000D+00  0.000000D+00  0.000000D+00  0.000000D+00  0.000000D+00
     18  0.000000D+00  0.000000D+00  0.000000D+00  0.000000D+00  0.000000D+00
     19  0.000000D+00  0.000000D+00  0.000000D+00  0.000000D+00  0.000000D+00
     20  0.654852D-01  0.130791D+00  0.000000D+00  0.000000D+00  0.529528D-01
     21  0.364208D+00  0.565239D+00  0.000000D+00  0.000000D+00  0.311115D+00
     22 -0.254963D+00 -0.166280D+00  0.000000D+00  0.000000D+00 -0.670660D-01
     23  0.000000D+00  0.000000D+00  0.246159D+00  0.000000D+00  0.000000D+00
     24  0.000000D+00  0.000000D+00  0.000000D+00  0.246159D+00  0.000000D+00
     25  0.584847D+00  0.605764D+00  0.000000D+00  0.000000D+00  0.583318D+00
     26 -0.605764D+00 -0.425818D-01  0.000000D+00  0.000000D+00 -0.249047D+00
     27  0.000000D+00  0.000000D+00  0.584847D+00  0.000000D+00  0.000000D+00
     28  0.000000D+00  0.000000D+00  0.000000D+00  0.584847D+00  0.000000D+00
     29  0.583318D+00  0.249047D+00  0.000000D+00  0.000000D+00  0.870005D+00
     30 -0.488789D+00  0.263223D+00  0.000000D+00  0.000000D+00 -0.459139D+00
     31  0.000000D+00  0.000000D+00  0.471911D+00  0.000000D+00  0.000000D+00
     32  0.000000D+00  0.000000D+00  0.000000D+00  0.471911D+00  0.000000D+00
     33  0.356792D+00  0.422965D+00  0.000000D+00  0.000000D+00  0.255641D+00
     34  0.259733D+00  0.444337D+00  0.000000D+00  0.000000D+00  0.248457D+00
     35  0.259733D+00  0.444337D+00  0.000000D+00  0.000000D+00  0.248457D+00
     36  0.000000D+00  0.000000D+00 -0.162306D+00  0.000000D+00  0.000000D+00
     37  0.000000D+00  0.000000D+00  0.000000D+00 -0.162306D+00  0.000000D+00
     38  0.000000D+00  0.000000D+00  0.000000D+00  0.000000D+00  0.000000D+00
     39  0.379435D+00 -0.263473D+00 -0.441737D+00  0.336652D-01  0.259379D+00
     40  0.707236D+00 -0.297323D+00 -0.498489D+00  0.379904D-01  0.642214D+00
     41  0.586602D+00 -0.887341D-01 -0.148771D+00  0.113380D-01  0.913825D+00
     42  0.884765D-01  0.139729D+00 -0.110631D+00  0.843131D-02  0.167588D-01
     43  0.148339D+00 -0.110631D+00  0.202310D-01  0.141359D-01  0.280976D-01
     44 -0.113051D-01  0.843131D-02  0.141359D-01  0.204637D+00 -0.214135D-02
     45  0.379455D+00 -0.263440D+00  0.441761D+00 -0.336670D-01  0.259383D+00
     46  0.707259D+00 -0.297279D+00  0.498506D+00 -0.379916D-01  0.642223D+00
     47  0.586609D+00 -0.887191D-01  0.148773D+00 -0.113381D-01  0.913832D+00
     48  0.884656D-01  0.139761D+00  0.110618D+00 -0.843027D-02  0.167560D-01
     49 -0.148348D+00  0.110618D+00  0.202322D-01  0.141367D-01 -0.280981D-01
     50  0.113057D-01 -0.843027D-02  0.141367D-01  0.204649D+00  0.214138D-02
     51  0.780498D-01  0.183841D+00  0.904359D-01 -0.689221D-02  0.160577D+00
     52  0.270863D+00  0.388098D+00  0.190915D+00 -0.145498D-01  0.430090D+00
     53  0.415304D+00  0.214112D+00  0.105327D+00 -0.802709D-02  0.726072D+00
     54 -0.549438D-01 -0.102177D+00 -0.687019D-01  0.523584D-02 -0.349817D-01
     55 -0.270282D-01 -0.687019D-01  0.368621D-02  0.257564D-02 -0.172083D-01
     56  0.205985D-02  0.523584D-02  0.257564D-02  0.372861D-01  0.131147D-02
     57  0.780498D-01  0.183841D+00 -0.904359D-01  0.689221D-02  0.160577D+00
     58  0.270863D+00  0.388098D+00 -0.190915D+00  0.145498D-01  0.430090D+00
     59  0.415304D+00  0.214112D+00 -0.105327D+00  0.802709D-02  0.726072D+00
     60 -0.549438D-01 -0.102177D+00  0.687019D-01 -0.523584D-02 -0.349817D-01
     61  0.270282D-01  0.687019D-01  0.368621D-02  0.257564D-02  0.172083D-01
     62 -0.205985D-02 -0.523584D-02  0.257564D-02  0.372861D-01 -0.131147D-02
               11            12            13            14            15 
     11  0.100000D+01
     12  0.000000D+00  0.100000D+01
     13  0.000000D+00  0.000000D+00  0.100000D+01
     14  0.000000D+00  0.000000D+00  0.000000D+00  0.100000D+01
     15  0.000000D+00  0.000000D+00  0.000000D+00  0.333333D+00  0.100000D+01
     16  0.000000D+00  0.000000D+00  0.000000D+00  0.333333D+00  0.333333D+00
     17  0.000000D+00  0.000000D+00  0.000000D+00  0.000000D+00  0.000000D+00
     18  0.000000D+00  0.000000D+00  0.000000D+00  0.000000D+00  0.000000D+00
     19  0.000000D+00  0.000000D+00  0.000000D+00  0.000000D+00  0.000000D+00
     20  0.553523D-01  0.000000D+00  0.000000D+00  0.557018D-01  0.121406D-02
     21  0.302453D+00  0.000000D+00  0.000000D+00  0.341180D+00  0.960381D-01
     22  0.612119D-01  0.000000D+00  0.000000D+00 -0.418609D+00 -0.146062D+00
     23  0.000000D+00  0.127081D+00  0.000000D+00  0.000000D+00  0.000000D+00
     24  0.000000D+00  0.000000D+00  0.127081D+00  0.000000D+00  0.000000D+00
     25  0.488789D+00  0.000000D+00  0.000000D+00  0.356792D+00  0.259733D+00
     26  0.263223D+00  0.000000D+00  0.000000D+00 -0.422965D+00 -0.444337D+00
     27  0.000000D+00  0.471911D+00  0.000000D+00  0.000000D+00  0.000000D+00
     28  0.000000D+00  0.000000D+00  0.471911D+00  0.000000D+00  0.000000D+00
     29  0.459139D+00  0.000000D+00  0.000000D+00  0.255641D+00  0.248457D+00
     30  0.627698D+00  0.000000D+00  0.000000D+00 -0.228594D+00 -0.248630D+00
     31  0.000000D+00  0.870005D+00  0.000000D+00  0.000000D+00  0.000000D+00
     32  0.000000D+00  0.000000D+00  0.870005D+00  0.000000D+00  0.000000D+00
     33  0.228594D+00  0.000000D+00  0.000000D+00  0.489977D+00  0.159462D+00
     34  0.248630D+00  0.000000D+00  0.000000D+00  0.159462D+00  0.785917D-01
     35  0.248630D+00  0.000000D+00  0.000000D+00  0.159462D+00  0.261972D-01
     36  0.000000D+00 -0.235775D-01  0.000000D+00  0.000000D+00  0.000000D+00
     37  0.000000D+00  0.000000D+00 -0.235775D-01  0.000000D+00  0.000000D+00
     38  0.000000D+00  0.000000D+00  0.000000D+00  0.000000D+00  0.000000D+00
     39 -0.106932D+00 -0.179281D+00  0.136632D-01  0.208739D+00  0.370139D+00
     40 -0.221355D+00 -0.371122D+00  0.282836D-01  0.374463D+00  0.412446D+00
     41 -0.180683D+00 -0.302931D+00  0.230867D-01  0.248213D+00  0.249736D+00
     42  0.694109D-01 -0.118431D-01  0.902576D-03 -0.223342D-01  0.311178D+00
     43 -0.118431D-01  0.566186D-01  0.151325D-02  0.253842D+00  0.230431D+00
     44  0.902576D-03  0.151325D-02  0.763594D-01 -0.193456D-01 -0.397607D-01
     45 -0.106914D+00  0.179284D+00 -0.136634D-01  0.208739D+00  0.370197D+00
     46 -0.221318D+00  0.371127D+00 -0.282840D-01  0.374475D+00  0.412468D+00
     47 -0.180652D+00  0.302934D+00 -0.230869D-01  0.248216D+00  0.249739D+00
     48  0.694146D-01  0.118412D-01 -0.902428D-03 -0.223662D-01  0.311179D+00
     49  0.118412D-01  0.566195D-01  0.151328D-02 -0.253835D+00 -0.230473D+00
     50 -0.902428D-03  0.151328D-02  0.763606D-01  0.193450D-01  0.397680D-01
     51  0.225598D+00  0.110977D+00 -0.845768D-02  0.154228D-01  0.513909D-02
     52  0.505240D+00  0.248540D+00 -0.189415D-01  0.125194D+00  0.864745D-01
     53  0.489285D+00  0.240691D+00 -0.183433D-01  0.172198D+00  0.167239D+00
     54 -0.341662D-02 -0.247209D-01  0.188401D-02 -0.142019D-01 -0.483368D-02
     55 -0.247209D-01  0.346760D-01  0.926789D-03 -0.831387D-02 -0.105022D-02
     56  0.188401D-02  0.926789D-03  0.467662D-01  0.633608D-03  0.181215D-03
     57  0.225598D+00 -0.110977D+00  0.845768D-02  0.154228D-01  0.513909D-02
     58  0.505240D+00 -0.248540D+00  0.189415D-01  0.125194D+00  0.864745D-01
     59  0.489285D+00 -0.240691D+00  0.183433D-01  0.172198D+00  0.167239D+00
     60 -0.341662D-02  0.247209D-01 -0.188401D-02 -0.142019D-01 -0.483368D-02
     61  0.247209D-01  0.346760D-01  0.926789D-03  0.831387D-02  0.105022D-02
     62 -0.188401D-02  0.926789D-03  0.467662D-01 -0.633608D-03 -0.181215D-03
               16            17            18            19            20 
     16  0.100000D+01
     17  0.000000D+00  0.100000D+01
     18  0.000000D+00  0.000000D+00  0.100000D+01
     19  0.000000D+00  0.000000D+00  0.000000D+00  0.100000D+01
     20  0.121406D-02  0.000000D+00  0.000000D+00  0.000000D+00  0.100000D+01
     21  0.960381D-01  0.000000D+00  0.000000D+00  0.000000D+00  0.219059D+00
     22 -0.146062D+00  0.000000D+00  0.000000D+00  0.000000D+00  0.000000D+00
     23  0.000000D+00  0.188838D+00  0.000000D+00  0.000000D+00  0.000000D+00
     24  0.000000D+00  0.000000D+00  0.188838D+00  0.000000D+00  0.000000D+00
     25  0.259733D+00  0.000000D+00  0.000000D+00  0.000000D+00  0.184261D+00
     26 -0.444337D+00  0.000000D+00  0.000000D+00  0.000000D+00  0.000000D+00
     27  0.000000D+00  0.162306D+00  0.000000D+00  0.000000D+00  0.000000D+00
     28  0.000000D+00  0.000000D+00  0.162306D+00  0.000000D+00  0.000000D+00
     29  0.248457D+00  0.000000D+00  0.000000D+00  0.000000D+00  0.697718D-01
     30 -0.248630D+00  0.000000D+00  0.000000D+00  0.000000D+00  0.000000D+00
     31  0.000000D+00  0.235775D-01  0.000000D+00  0.000000D+00  0.000000D+00
     32  0.000000D+00  0.000000D+00  0.235775D-01  0.000000D+00  0.000000D+00
     33  0.159462D+00  0.000000D+00  0.000000D+00  0.000000D+00  0.791027D-01
     34  0.261972D-01  0.000000D+00  0.000000D+00  0.000000D+00  0.791027D-01
     35  0.785917D-01  0.000000D+00  0.000000D+00  0.000000D+00  0.791027D-01
     36  0.000000D+00 -0.321203D+00  0.000000D+00  0.000000D+00  0.000000D+00
     37  0.000000D+00  0.000000D+00 -0.321203D+00  0.000000D+00  0.000000D+00
     38  0.000000D+00  0.000000D+00  0.000000D+00  0.785917D-01  0.000000D+00
     39  0.121071D+00  0.258810D+00 -0.197242D-01 -0.330694D-01  0.531796D-04
     40  0.353831D+00  0.609071D-01 -0.464179D-02 -0.778239D-02  0.151619D-01
     41  0.247386D+00  0.244198D-02 -0.186106D-03 -0.312023D-03  0.343004D-01
     42  0.646178D-01  0.394144D-02 -0.300381D-03 -0.327364D-01  0.429283D-05
     43  0.108338D+00  0.279088D+00 -0.327364D-01 -0.356604D-01  0.211175D-05
     44  0.139428D-01 -0.327364D-01 -0.147966D+00 -0.248079D+00  0.000000D+00
     45  0.121088D+00 -0.258805D+00  0.197238D-01 -0.330747D-01  0.532189D-04
     46  0.353850D+00 -0.608993D-01  0.464120D-02 -0.778280D-02  0.151651D-01
     47  0.247389D+00 -0.244157D-02  0.186075D-03 -0.312028D-03  0.343021D-01
     48  0.646180D-01 -0.384967D-02  0.293387D-03 -0.327365D-01  0.429739D-05
     49 -0.108358D+00  0.279089D+00 -0.327365D-01  0.356670D-01 -0.211411D-05
     50 -0.139453D-01 -0.327365D-01 -0.147967D+00  0.248125D+00  0.000000D+00
     51  0.187516D-02  0.115593D-01 -0.880947D-03 -0.433360D-03  0.336115D-01
     52  0.741853D-01  0.435229D-01 -0.331693D-02 -0.163168D-02  0.928724D-01
     53  0.165665D+00  0.557349D-02 -0.424761D-03 -0.208951D-03  0.519797D-01
     54 -0.100374D-02 -0.124142D-01  0.946095D-03  0.508511D-03 -0.243546D-01
     55 -0.493765D-03 -0.433522D-02  0.508511D-03  0.162528D-03 -0.408328D-01
     56 -0.635463D-04  0.508511D-03  0.229844D-02  0.113066D-02  0.311191D-02
     57  0.187516D-02 -0.115593D-01  0.880947D-03 -0.433360D-03  0.336115D-01
     58  0.741853D-01 -0.435229D-01  0.331693D-02 -0.163168D-02  0.928724D-01
     59  0.165665D+00 -0.557349D-02  0.424761D-03 -0.208951D-03  0.519797D-01
     60 -0.100374D-02  0.124142D-01 -0.946095D-03  0.508511D-03 -0.243546D-01
     61  0.493765D-03 -0.433522D-02  0.508511D-03 -0.162528D-03  0.408328D-01
     62  0.635463D-04  0.508511D-03  0.229844D-02 -0.113066D-02 -0.311191D-02
               21            22            23            24            25 
     21  0.100000D+01
     22  0.000000D+00  0.100000D+01
     23  0.000000D+00  0.000000D+00  0.100000D+01
     24  0.000000D+00  0.000000D+00  0.000000D+00  0.100000D+01
     25  0.812273D+00  0.000000D+00  0.000000D+00  0.000000D+00  0.100000D+01
     26  0.000000D+00  0.569754D+00  0.000000D+00  0.000000D+00  0.000000D+00
     27  0.000000D+00  0.000000D+00  0.569754D+00  0.000000D+00  0.000000D+00
     28  0.000000D+00  0.000000D+00  0.000000D+00  0.569754D+00  0.000000D+00
     29  0.402091D+00  0.000000D+00  0.000000D+00  0.000000D+00  0.727666D+00
     30  0.000000D+00  0.164679D+00  0.000000D+00  0.000000D+00  0.000000D+00
     31  0.000000D+00  0.000000D+00  0.164679D+00  0.000000D+00  0.000000D+00
     32  0.000000D+00  0.000000D+00  0.000000D+00  0.164679D+00  0.000000D+00
     33  0.710235D+00  0.000000D+00  0.000000D+00  0.000000D+00  0.629936D+00
     34  0.710235D+00  0.000000D+00  0.000000D+00  0.000000D+00  0.629936D+00
     35  0.710235D+00  0.000000D+00  0.000000D+00  0.000000D+00  0.629936D+00
     36  0.000000D+00  0.000000D+00  0.000000D+00  0.000000D+00  0.000000D+00
     37  0.000000D+00  0.000000D+00  0.000000D+00  0.000000D+00  0.000000D+00
     38  0.000000D+00  0.000000D+00  0.000000D+00  0.000000D+00  0.000000D+00
     39  0.884794D-02 -0.168996D-01 -0.831332D-02  0.633567D-03  0.780498D-01
     40  0.115201D+00 -0.105703D+00 -0.519979D-01  0.396281D-02  0.270863D+00
     41  0.208140D+00 -0.526158D-01 -0.258830D-01  0.197257D-02  0.415304D+00
     42  0.809176D-02 -0.166602D-01 -0.918359D-02  0.699890D-03  0.549438D-01
     43  0.398054D-02 -0.918359D-02 -0.250913D-02  0.344293D-03  0.270282D-01
     44 -0.303361D-03  0.699890D-03  0.344293D-03  0.198227D-02 -0.205985D-02
     45  0.885147D-02 -0.169055D-01  0.831670D-02 -0.633824D-03  0.780641D-01
     46  0.115220D+00 -0.105715D+00  0.520068D-01 -0.396349D-02  0.270893D+00
     47  0.208149D+00 -0.526154D-01  0.258842D-01 -0.197266D-02  0.415320D+00
     48  0.809530D-02 -0.166664D-01  0.918763D-02 -0.700198D-03  0.549518D-01
     49 -0.398249D-02  0.918763D-02 -0.251037D-02  0.344463D-03 -0.270336D-01
     50  0.303509D-03 -0.700198D-03  0.344463D-03  0.198324D-02  0.206025D-02
     51  0.277475D+00  0.190738D+00  0.319790D+00 -0.243715D-01  0.379435D+00
     52  0.478850D+00  0.135898D+00  0.227846D+00 -0.173643D-01  0.707236D+00
     53  0.307877D+00  0.229098D-01  0.384104D-01 -0.292729D-02  0.586602D+00
     54 -0.151091D+00  0.192987D-01 -0.227403D+00  0.173306D-01 -0.884765D-01
     55 -0.253319D+00 -0.227403D+00 -0.226330D+00  0.290564D-01 -0.148339D+00
     56  0.193057D-01  0.173306D-01  0.290564D-01  0.152718D+00  0.113051D-01
     57  0.277475D+00  0.190738D+00 -0.319790D+00  0.243715D-01  0.379435D+00
     58  0.478850D+00  0.135898D+00 -0.227846D+00  0.173643D-01  0.707236D+00
     59  0.307877D+00  0.229098D-01 -0.384104D-01  0.292729D-02  0.586602D+00
     60 -0.151091D+00  0.192987D-01  0.227403D+00 -0.173306D-01 -0.884765D-01
     61  0.253319D+00  0.227403D+00 -0.226330D+00  0.290564D-01  0.148339D+00
     62 -0.193057D-01 -0.173306D-01  0.290564D-01  0.152718D+00 -0.113051D-01
               26            27            28            29            30 
     26  0.100000D+01
     27  0.000000D+00  0.100000D+01
     28  0.000000D+00  0.000000D+00  0.100000D+01
     29  0.000000D+00  0.000000D+00  0.000000D+00  0.100000D+01
     30  0.588690D+00  0.000000D+00  0.000000D+00  0.000000D+00  0.100000D+01
     31  0.000000D+00  0.588690D+00  0.000000D+00  0.000000D+00  0.000000D+00
     32  0.000000D+00  0.000000D+00  0.588690D+00  0.000000D+00  0.000000D+00
     33  0.000000D+00  0.000000D+00  0.000000D+00  0.323540D+00  0.000000D+00
     34  0.000000D+00  0.000000D+00  0.000000D+00  0.323540D+00  0.000000D+00
     35  0.000000D+00  0.000000D+00  0.000000D+00  0.323540D+00  0.000000D+00
     36  0.000000D+00  0.000000D+00  0.000000D+00  0.000000D+00  0.000000D+00
     37  0.000000D+00  0.000000D+00  0.000000D+00  0.000000D+00  0.000000D+00
     38  0.000000D+00  0.000000D+00  0.000000D+00  0.000000D+00  0.000000D+00
     39 -0.183841D+00 -0.904359D-01  0.689221D-02  0.160577D+00 -0.225598D+00
     40 -0.388098D+00 -0.190915D+00  0.145498D-01  0.430090D+00 -0.505240D+00
     41 -0.214112D+00 -0.105327D+00  0.802709D-02  0.726072D+00 -0.489285D+00
     42 -0.102177D+00 -0.687019D-01  0.523584D-02  0.349817D-01 -0.341662D-02
     43 -0.687019D-01  0.368621D-02  0.257564D-02  0.172083D-01 -0.247209D-01
     44  0.523584D-02  0.257564D-02  0.372861D-01 -0.131147D-02  0.188401D-02
     45 -0.183865D+00  0.904524D-01 -0.689347D-02  0.160586D+00 -0.225599D+00
     46 -0.388121D+00  0.190937D+00 -0.145515D-01  0.430110D+00 -0.505237D+00
     47 -0.214110D+00  0.105331D+00 -0.802741D-02  0.726091D+00 -0.489272D+00
     48 -0.102182D+00  0.687118D-01 -0.523659D-02  0.349818D-01 -0.341150D-02
     49  0.687118D-01  0.368694D-02  0.257615D-02 -0.172093D-01  0.247210D-01
     50 -0.523659D-02  0.257615D-02  0.372934D-01  0.131154D-02 -0.188401D-02
     51  0.263473D+00  0.441737D+00 -0.336652D-01  0.259379D+00  0.106932D+00
     52  0.297323D+00  0.498489D+00 -0.379904D-01  0.642214D+00  0.221355D+00
     53  0.887341D-01  0.148771D+00 -0.113380D-01  0.913825D+00  0.180683D+00
     54  0.139729D+00 -0.110631D+00  0.843131D-02 -0.167588D-01  0.694109D-01
     55 -0.110631D+00  0.202310D-01  0.141359D-01 -0.280976D-01 -0.118431D-01
     56  0.843131D-02  0.141359D-01  0.204637D+00  0.214135D-02  0.902576D-03
     57  0.263473D+00 -0.441737D+00  0.336652D-01  0.259379D+00  0.106932D+00
     58  0.297323D+00 -0.498489D+00  0.379904D-01  0.642214D+00  0.221355D+00
     59  0.887341D-01 -0.148771D+00  0.113380D-01  0.913825D+00  0.180683D+00
     60  0.139729D+00  0.110631D+00 -0.843131D-02 -0.167588D-01  0.694109D-01
     61  0.110631D+00  0.202310D-01  0.141359D-01  0.280976D-01  0.118431D-01
     62 -0.843131D-02  0.141359D-01  0.204637D+00 -0.214135D-02 -0.902576D-03
               31            32            33            34            35 
     31  0.100000D+01
     32  0.000000D+00  0.100000D+01
     33  0.000000D+00  0.000000D+00  0.100000D+01
     34  0.000000D+00  0.000000D+00  0.333333D+00  0.100000D+01
     35  0.000000D+00  0.000000D+00  0.333333D+00  0.333333D+00  0.100000D+01
     36  0.000000D+00  0.000000D+00  0.000000D+00  0.000000D+00  0.000000D+00
     37  0.000000D+00  0.000000D+00  0.000000D+00  0.000000D+00  0.000000D+00
     38  0.000000D+00  0.000000D+00  0.000000D+00  0.000000D+00  0.000000D+00
     39 -0.110977D+00  0.845768D-02  0.154228D-01  0.513909D-02  0.187516D-02
     40 -0.248540D+00  0.189415D-01  0.125194D+00  0.864745D-01  0.741853D-01
     41 -0.240691D+00  0.183433D-01  0.172198D+00  0.167239D+00  0.165665D+00
     42 -0.247209D-01  0.188401D-02  0.142019D-01  0.483368D-02  0.100374D-02
     43  0.346760D-01  0.926789D-03  0.831387D-02  0.105022D-02  0.493765D-03
     44  0.926789D-03  0.467662D-01 -0.633608D-03 -0.181215D-03  0.635463D-04
     45  0.110983D+00 -0.845815D-02  0.154288D-01  0.514157D-02  0.187606D-02
     46  0.248552D+00 -0.189424D-01  0.125212D+00  0.864902D-01  0.741987D-01
     47  0.240698D+00 -0.183438D-01  0.172205D+00  0.167247D+00  0.165673D+00
     48  0.247210D-01 -0.188401D-02  0.142084D-01  0.483645D-02  0.100432D-02
     49  0.346780D-01  0.926842D-03 -0.831823D-02 -0.105088D-02 -0.494074D-03
     50  0.926842D-03  0.467689D-01  0.633941D-03  0.181328D-03 -0.635860D-04
     51  0.179281D+00 -0.136632D-01  0.208739D+00  0.370139D+00  0.121071D+00
     52  0.371122D+00 -0.282836D-01  0.374463D+00  0.412446D+00  0.353831D+00
     53  0.302931D+00 -0.230867D-01  0.248213D+00  0.249736D+00  0.247386D+00
     54 -0.118431D-01  0.902576D-03  0.223342D-01 -0.311178D+00 -0.646178D-01
     55  0.566186D-01  0.151325D-02 -0.253842D+00 -0.230431D+00 -0.108338D+00
     56  0.151325D-02  0.763594D-01  0.193456D-01  0.397607D-01 -0.139428D-01
     57 -0.179281D+00  0.136632D-01  0.208739D+00  0.370139D+00  0.121071D+00
     58 -0.371122D+00  0.282836D-01  0.374463D+00  0.412446D+00  0.353831D+00
     59 -0.302931D+00  0.230867D-01  0.248213D+00  0.249736D+00  0.247386D+00
     60  0.118431D-01 -0.902576D-03  0.223342D-01 -0.311178D+00 -0.646178D-01
     61  0.566186D-01  0.151325D-02  0.253842D+00  0.230431D+00  0.108338D+00
     62  0.151325D-02  0.763594D-01 -0.193456D-01 -0.397607D-01  0.139428D-01
               36            37            38            39            40 
     36  0.100000D+01
     37  0.000000D+00  0.100000D+01
     38  0.000000D+00  0.000000D+00  0.100000D+01
     39  0.115593D-01 -0.880947D-03 -0.433360D-03  0.100000D+01
     40  0.435229D-01 -0.331693D-02 -0.163168D-02  0.658292D+00  0.100000D+01
     41  0.557349D-02 -0.424761D-03 -0.208951D-03  0.270437D+00  0.678946D+00
     42  0.124142D-01 -0.946095D-03 -0.508511D-03  0.000000D+00  0.000000D+00
     43  0.433522D-02 -0.508511D-03 -0.162528D-03  0.000000D+00  0.000000D+00
     44 -0.508511D-03 -0.229844D-02 -0.113066D-02  0.000000D+00  0.000000D+00
     45 -0.115643D-01  0.881327D-03 -0.433569D-03  0.129252D-01  0.129409D+00
     46 -0.435285D-01  0.331735D-02 -0.163197D-02  0.129409D+00  0.367923D+00
     47 -0.557346D-02  0.424759D-03 -0.208960D-03  0.176921D+00  0.471358D+00
     48 -0.124205D-01  0.946577D-03 -0.508802D-03  0.000000D+00 -0.483625D-05
     49  0.433770D-02 -0.508802D-03  0.162629D-03 -0.138850D-01 -0.898575D-01
     50 -0.508802D-03 -0.229975D-02  0.113137D-02  0.105819D-02  0.684813D-02
     51  0.258810D+00 -0.197242D-01 -0.330694D-01  0.136801D-04  0.803115D-02
     52  0.609071D-01 -0.464179D-02 -0.778239D-02  0.803115D-02  0.660082D-01
     53  0.244198D-02 -0.186106D-03 -0.312023D-03  0.853400D-01  0.251783D+00
     54 -0.394144D-02  0.300381D-03  0.327364D-01 -0.327574D-05 -0.590016D-02
     55 -0.279088D+00  0.327364D-01  0.356604D-01 -0.249174D-05 -0.448805D-02
     56  0.327364D-01  0.147966D+00  0.248079D+00  0.000000D+00  0.342039D-03
     57 -0.258810D+00  0.197242D-01 -0.330694D-01  0.727393D-03  0.404052D-01
     58 -0.609071D-01  0.464179D-02 -0.778239D-02  0.404052D-01  0.179408D+00
     59 -0.244198D-02  0.186106D-03 -0.312023D-03  0.130442D+00  0.362670D+00
     60  0.394144D-02 -0.300381D-03  0.327364D-01 -0.494768D-03 -0.337519D-01
     61 -0.279088D+00  0.327364D-01 -0.356604D-01  0.000000D+00  0.000000D+00
     62  0.327364D-01  0.147966D+00 -0.248079D+00  0.000000D+00  0.000000D+00
               41            42            43            44            45 
     41  0.100000D+01
     42  0.000000D+00  0.100000D+01
     43  0.000000D+00  0.000000D+00  0.100000D+01
     44  0.000000D+00  0.000000D+00  0.000000D+00  0.100000D+01
     45  0.176921D+00  0.000000D+00  0.138850D-01 -0.105819D-02  0.100000D+01
     46  0.471358D+00  0.483625D-05  0.898575D-01 -0.684813D-02  0.658292D+00
     47  0.799962D+00  0.169075D-05  0.314142D-01 -0.239411D-02  0.270437D+00
     48 -0.169075D-05  0.109202D-02  0.000000D+00  0.000000D+00  0.000000D+00
     49 -0.314142D-01  0.000000D+00 -0.137165D-01  0.112857D-02  0.000000D+00
     50  0.239411D-02  0.000000D+00  0.112857D-02  0.100601D-02  0.000000D+00
     51  0.853400D-01  0.327574D-05  0.249174D-05  0.000000D+00  0.727801D-03
     52  0.251783D+00  0.590016D-02  0.448805D-02 -0.342039D-03  0.404144D-01
     53  0.545147D+00  0.196507D-01  0.149476D-01 -0.113917D-02  0.130450D+00
     54 -0.196507D-01  0.000000D+00  0.000000D+00  0.000000D+00 -0.495097D-03
     55 -0.149476D-01  0.000000D+00  0.000000D+00  0.000000D+00  0.000000D+00
     56  0.113917D-02  0.000000D+00  0.000000D+00  0.000000D+00  0.000000D+00
     57  0.130442D+00  0.494768D-03  0.000000D+00  0.000000D+00  0.136878D-04
     58  0.362670D+00  0.337519D-01  0.000000D+00  0.000000D+00  0.803297D-02
     59  0.681466D+00  0.302758D-01  0.000000D+00  0.000000D+00  0.853451D-01
     60 -0.302758D-01 -0.182708D-03  0.000000D+00  0.000000D+00 -0.327792D-05
     61  0.000000D+00  0.000000D+00  0.814331D-05  0.000000D+00  0.249350D-05
     62  0.000000D+00  0.000000D+00  0.000000D+00  0.814331D-05  0.000000D+00
               46            47            48            49            50 
     46  0.100000D+01
     47  0.678946D+00  0.100000D+01
     48  0.000000D+00  0.000000D+00  0.100000D+01
     49  0.000000D+00  0.000000D+00  0.000000D+00  0.100000D+01
     50  0.000000D+00  0.000000D+00  0.000000D+00  0.000000D+00  0.100000D+01
     51  0.404144D-01  0.130450D+00  0.495097D-03  0.000000D+00  0.000000D+00
     52  0.179433D+00  0.362689D+00  0.337588D-01  0.000000D+00  0.000000D+00
     53  0.362689D+00  0.681488D+00  0.302764D-01  0.000000D+00  0.000000D+00
     54 -0.337588D-01 -0.302764D-01 -0.182868D-03  0.000000D+00  0.000000D+00
     55  0.000000D+00  0.000000D+00  0.000000D+00  0.815113D-05  0.000000D+00
     56  0.000000D+00  0.000000D+00  0.000000D+00  0.000000D+00  0.815113D-05
     57  0.803297D-02  0.853451D-01  0.327792D-05 -0.249350D-05  0.000000D+00
     58  0.660175D-01  0.251796D+00  0.590137D-02 -0.448915D-02  0.342122D-03
     59  0.251796D+00  0.545164D+00  0.196511D-01 -0.149485D-01  0.113924D-02
     60 -0.590137D-02 -0.196511D-01  0.000000D+00  0.000000D+00  0.000000D+00
     61  0.448915D-02  0.149485D-01  0.000000D+00  0.000000D+00  0.000000D+00
     62 -0.342122D-03 -0.113924D-02  0.000000D+00  0.000000D+00  0.000000D+00
               51            52            53            54            55 
     51  0.100000D+01
     52  0.658292D+00  0.100000D+01
     53  0.270437D+00  0.678946D+00  0.100000D+01
     54  0.000000D+00  0.000000D+00  0.000000D+00  0.100000D+01
     55  0.000000D+00  0.000000D+00  0.000000D+00  0.000000D+00  0.100000D+01
     56  0.000000D+00  0.000000D+00  0.000000D+00  0.000000D+00  0.000000D+00
     57  0.129252D-01  0.129409D+00  0.176921D+00  0.000000D+00 -0.138850D-01
     58  0.129409D+00  0.367923D+00  0.471358D+00  0.000000D+00 -0.898575D-01
     59  0.176921D+00  0.471358D+00  0.799962D+00  0.000000D+00 -0.314142D-01
     60  0.000000D+00  0.000000D+00  0.000000D+00  0.109202D-02  0.000000D+00
     61  0.138850D-01  0.898575D-01  0.314142D-01  0.000000D+00 -0.137165D-01
     62 -0.105819D-02 -0.684813D-02 -0.239411D-02  0.000000D+00  0.112857D-02
               56            57            58            59            60 
     56  0.100000D+01
     57  0.105819D-02  0.100000D+01
     58  0.684813D-02  0.658292D+00  0.100000D+01
     59  0.239411D-02  0.270437D+00  0.678946D+00  0.100000D+01
     60  0.000000D+00  0.000000D+00  0.000000D+00  0.000000D+00  0.100000D+01
     61  0.112857D-02  0.000000D+00  0.000000D+00  0.000000D+00  0.000000D+00
     62  0.100601D-02  0.000000D+00  0.000000D+00  0.000000D+00  0.000000D+00
               61            62 
     61  0.100000D+01
     62  0.000000D+00  0.100000D+01
 *** Kinetic Energy *** 
                1             2             3             4             5 
      1  0.162076D+02
      2 -0.124757D+01  0.932246D+00
      3  0.000000D+00  0.000000D+00  0.217833D+01
      4  0.000000D+00  0.000000D+00  0.000000D+00  0.217833D+01
      5  0.000000D+00  0.000000D+00  0.000000D+00  0.000000D+00  0.217833D+01
      6  0.899505D-01  0.306718D+00  0.000000D+00  0.000000D+00  0.000000D+00
      7  0.000000D+00  0.000000D+00  0.376673D+00  0.000000D+00  0.000000D+00
      8  0.000000D+00  0.000000D+00  0.000000D+00  0.376673D+00  0.000000D+00
      9  0.000000D+00  0.000000D+00  0.000000D+00  0.000000D+00  0.376673D+00
     10  0.907972D-02  0.486595D-01  0.000000D+00  0.000000D+00  0.000000D+00
     11  0.000000D+00  0.000000D+00  0.335613D-01  0.000000D+00  0.000000D+00
     12  0.000000D+00  0.000000D+00  0.000000D+00  0.335613D-01  0.000000D+00
     13  0.000000D+00  0.000000D+00  0.000000D+00  0.000000D+00  0.335613D-01
     14 -0.524817D+00  0.520042D+00  0.000000D+00  0.000000D+00  0.000000D+00
     15 -0.524817D+00  0.520042D+00  0.000000D+00  0.000000D+00  0.000000D+00
     16 -0.524817D+00  0.520042D+00  0.000000D+00  0.000000D+00  0.000000D+00
     17  0.000000D+00  0.000000D+00  0.000000D+00  0.000000D+00  0.000000D+00
     18  0.000000D+00  0.000000D+00  0.000000D+00  0.000000D+00  0.000000D+00
     19  0.000000D+00  0.000000D+00  0.000000D+00  0.000000D+00  0.000000D+00
     20 -0.157545D-03 -0.311300D-01 -0.295200D-01  0.000000D+00  0.000000D+00
     21 -0.311300D-01 -0.396588D-02  0.121339D+00  0.000000D+00  0.000000D+00
     22  0.295200D-01 -0.121339D+00 -0.353621D+00  0.000000D+00  0.000000D+00
     23  0.000000D+00  0.000000D+00  0.000000D+00  0.357406D-01  0.000000D+00
     24  0.000000D+00  0.000000D+00  0.000000D+00  0.000000D+00  0.357406D-01
     25  0.991305D-02  0.644513D-01  0.111446D+00  0.000000D+00  0.000000D+00
     26 -0.623557D-01 -0.242468D+00 -0.182099D+00  0.000000D+00  0.000000D+00
     27  0.000000D+00  0.000000D+00  0.000000D+00  0.107598D+00  0.000000D+00
     28  0.000000D+00  0.000000D+00  0.000000D+00  0.000000D+00  0.107598D+00
     29  0.562377D-02  0.312159D-01  0.122498D-01  0.000000D+00  0.000000D+00
     30 -0.106810D-01 -0.547346D-01  0.580695D-02  0.000000D+00  0.000000D+00
     31  0.000000D+00  0.000000D+00  0.000000D+00  0.232118D-01  0.000000D+00
     32  0.000000D+00  0.000000D+00  0.000000D+00  0.000000D+00  0.232118D-01
     33 -0.752257D-01  0.194326D+00  0.500161D+00  0.000000D+00  0.000000D+00
     34 -0.127824D-01 -0.704548D-01 -0.438665D-01  0.000000D+00  0.000000D+00
     35 -0.127824D-01 -0.704548D-01 -0.438665D-01  0.000000D+00  0.000000D+00
     36  0.000000D+00  0.000000D+00  0.000000D+00 -0.151537D+00  0.000000D+00
     37  0.000000D+00  0.000000D+00  0.000000D+00  0.000000D+00 -0.151537D+00
     38  0.000000D+00  0.000000D+00  0.000000D+00  0.000000D+00  0.000000D+00
     39 -0.348927D-01  0.450581D-01 -0.124547D+00 -0.208815D+00  0.159140D-01
     40  0.244814D-01  0.115741D+00 -0.679343D-01 -0.113898D+00  0.868029D-02
     41  0.501280D-02  0.281424D-01 -0.366374D-02 -0.614260D-02  0.468133D-03
     42 -0.527799D-01  0.129544D+00 -0.897252D-01 -0.297942D+00  0.227064D-01
     43 -0.884903D-01  0.217192D+00 -0.297942D+00 -0.411545D+00  0.380694D-01
     44  0.674393D-02 -0.165524D-01  0.227064D-01  0.380694D-01  0.850801D-01
     45 -0.348929D-01  0.450835D-01 -0.124557D+00  0.208870D+00 -0.159182D-01
     46  0.244847D-01  0.115752D+00 -0.679272D-01  0.113907D+00 -0.868095D-02
     47  0.501292D-02  0.281431D-01 -0.366315D-02  0.614272D-02 -0.468142D-03
     48 -0.527744D-01  0.129553D+00 -0.896783D-01  0.297970D+00 -0.227086D-01
     49  0.884972D-01 -0.217247D+00  0.297970D+00 -0.411652D+00  0.380800D-01
     50 -0.674445D-02  0.165566D-01 -0.227086D-01  0.380800D-01  0.851114D-01
     51 -0.419389D-03 -0.166226D-01 -0.235438D-01 -0.115818D-01  0.882657D-03
     52 -0.455970D-02 -0.123605D-01  0.130800D-01  0.643438D-02 -0.490370D-03
     53  0.228936D-02  0.135463D-01  0.700484D-02  0.344585D-02 -0.262612D-03
     54  0.756106D-04  0.191276D-01  0.267377D-01  0.155253D-01 -0.118320D-02
     55  0.371947D-04  0.940936D-02  0.155253D-01  0.281464D-02 -0.582044D-03
     56 -0.283465D-05 -0.717097D-03 -0.118320D-02 -0.582044D-03 -0.477827D-02
     57 -0.419389D-03 -0.166226D-01 -0.235438D-01  0.115818D-01 -0.882657D-03
     58 -0.455970D-02 -0.123605D-01  0.130800D-01 -0.643438D-02  0.490370D-03
     59  0.228936D-02  0.135463D-01  0.700484D-02 -0.344585D-02  0.262612D-03
     60  0.756106D-04  0.191276D-01  0.267377D-01 -0.155253D-01  0.118320D-02
     61 -0.371947D-04 -0.940936D-02 -0.155253D-01  0.281464D-02 -0.582044D-03
     62  0.283465D-05  0.717097D-03  0.118320D-02 -0.582044D-03 -0.477827D-02
                6             7             8             9            10 
      6  0.253072D+00
      7  0.000000D+00  0.421786D+00
      8  0.000000D+00  0.000000D+00  0.421786D+00
      9  0.000000D+00  0.000000D+00  0.000000D+00  0.421786D+00
     10  0.759086D-01  0.000000D+00  0.000000D+00  0.000000D+00  0.657000D-01
     11  0.000000D+00  0.102352D+00  0.000000D+00  0.000000D+00  0.000000D+00
     12  0.000000D+00  0.000000D+00  0.102352D+00  0.000000D+00  0.000000D+00
     13  0.000000D+00  0.000000D+00  0.000000D+00  0.102352D+00  0.000000D+00
     14  0.226288D+00  0.000000D+00  0.000000D+00  0.000000D+00  0.388353D-01
     15  0.226288D+00  0.000000D+00  0.000000D+00  0.000000D+00  0.388353D-01
     16  0.226288D+00  0.000000D+00  0.000000D+00  0.000000D+00  0.388353D-01
     17  0.000000D+00  0.000000D+00  0.000000D+00  0.000000D+00  0.000000D+00
     18  0.000000D+00  0.000000D+00  0.000000D+00  0.000000D+00  0.000000D+00
     19  0.000000D+00  0.000000D+00  0.000000D+00  0.000000D+00  0.000000D+00
     20  0.991305D-02  0.623557D-01  0.000000D+00  0.000000D+00  0.562377D-02
     21  0.644513D-01  0.242468D+00  0.000000D+00  0.000000D+00  0.312159D-01
     22 -0.111446D+00 -0.182099D+00  0.000000D+00  0.000000D+00 -0.122498D-01
     23  0.000000D+00  0.000000D+00  0.107598D+00  0.000000D+00  0.000000D+00
     24  0.000000D+00  0.000000D+00  0.000000D+00  0.107598D+00  0.000000D+00
     25  0.950802D-01  0.200682D+00  0.000000D+00  0.000000D+00  0.518808D-01
     26 -0.200682D+00 -0.119963D+00  0.000000D+00  0.000000D+00 -0.394706D-01
     27  0.000000D+00  0.000000D+00  0.193752D+00  0.000000D+00  0.000000D+00
     28  0.000000D+00  0.000000D+00  0.000000D+00  0.193752D+00  0.000000D+00
     29  0.518808D-01  0.394706D-01  0.000000D+00  0.000000D+00  0.518528D-01
     30 -0.774662D-01  0.272039D-01  0.000000D+00  0.000000D+00 -0.474752D-01
     31  0.000000D+00  0.000000D+00  0.747914D-01  0.000000D+00  0.000000D+00
     32  0.000000D+00  0.000000D+00  0.000000D+00  0.747914D-01  0.000000D+00
     33  0.998792D-01  0.204438D+00  0.000000D+00  0.000000D+00  0.263047D-01
     34  0.291784D-01  0.173736D+00  0.000000D+00  0.000000D+00  0.243740D-01
     35  0.291784D-01  0.173736D+00  0.000000D+00  0.000000D+00  0.243740D-01
     36  0.000000D+00  0.000000D+00 -0.118229D+00  0.000000D+00  0.000000D+00
     37  0.000000D+00  0.000000D+00  0.000000D+00 -0.118229D+00  0.000000D+00
     38  0.000000D+00  0.000000D+00  0.000000D+00  0.000000D+00  0.000000D+00
     39  0.957639D-01 -0.138571D+00 -0.232327D+00  0.177058D-01  0.283630D-01
     40  0.134592D+00 -0.105615D+00 -0.177073D+00  0.134949D-01  0.599688D-01
     41  0.478784D-01 -0.125078D-01 -0.209705D-01  0.159818D-02  0.511755D-01
     42  0.488225D-01  0.577996D-01 -0.934137D-01  0.711915D-02  0.328007D-02
     43  0.818555D-01 -0.934137D-01 -0.431008D-01  0.119359D-01  0.549934D-02
     44 -0.623829D-02  0.711915D-02  0.119359D-01  0.112606D+00 -0.419110D-03
     45  0.957747D-01 -0.138557D+00  0.232346D+00 -0.177073D-01  0.283638D-01
     46  0.134600D+00 -0.105601D+00  0.177082D+00 -0.134956D-01  0.599702D-01
     47  0.478794D-01 -0.125058D-01  0.209709D-01 -0.159821D-02  0.511762D-01
     48  0.488180D-01  0.578254D-01  0.934041D-01 -0.711842D-02  0.327955D-02
     49 -0.818627D-01  0.934041D-01 -0.431029D-01  0.119368D-01 -0.549947D-02
     50  0.623884D-02 -0.711842D-02  0.119368D-01  0.112616D+00  0.419120D-03
     51 -0.138008D-01  0.170498D-01  0.838720D-02 -0.639197D-03  0.112122D-01
     52  0.867632D-02  0.764339D-01  0.375997D-01 -0.286551D-02  0.282819D-01
     53  0.253868D-01  0.257934D-01  0.126884D-01 -0.966997D-03  0.340618D-01
     54 -0.295049D-02 -0.463453D-01 -0.237885D-01  0.181295D-02 -0.540179D-02
     55 -0.145142D-02 -0.237885D-01 -0.968936D-02  0.891834D-03 -0.265728D-02
     56  0.110614D-03  0.181295D-02  0.891834D-03  0.194484D-02  0.202514D-03
     57 -0.138008D-01  0.170498D-01 -0.838720D-02  0.639197D-03  0.112122D-01
     58  0.867632D-02  0.764339D-01 -0.375997D-01  0.286551D-02  0.282819D-01
     59  0.253868D-01  0.257934D-01 -0.126884D-01  0.966997D-03  0.340618D-01
     60 -0.295049D-02 -0.463453D-01  0.237885D-01 -0.181295D-02 -0.540179D-02
     61  0.145142D-02  0.237885D-01 -0.968936D-02  0.891834D-03  0.265728D-02
     62 -0.110614D-03 -0.181295D-02  0.891834D-03  0.194484D-02 -0.202514D-03
               11            12            13            14            15 
     11  0.109500D+00
     12  0.000000D+00  0.109500D+00
     13  0.000000D+00  0.000000D+00  0.109500D+00
     14  0.000000D+00  0.000000D+00  0.000000D+00  0.173333D+01
     15  0.000000D+00  0.000000D+00  0.000000D+00 -0.133333D+00  0.173333D+01
     16  0.000000D+00  0.000000D+00  0.000000D+00 -0.133333D+00 -0.133333D+00
     17  0.000000D+00  0.000000D+00  0.000000D+00  0.000000D+00  0.000000D+00
     18  0.000000D+00  0.000000D+00  0.000000D+00  0.000000D+00  0.000000D+00
     19  0.000000D+00  0.000000D+00  0.000000D+00  0.000000D+00  0.000000D+00
     20  0.106810D-01  0.000000D+00  0.000000D+00 -0.752257D-01 -0.127824D-01
     21  0.547346D-01  0.000000D+00  0.000000D+00  0.194326D+00 -0.704548D-01
     22  0.580695D-02  0.000000D+00  0.000000D+00 -0.500161D+00  0.438665D-01
     23  0.000000D+00  0.232118D-01  0.000000D+00  0.000000D+00  0.000000D+00
     24  0.000000D+00  0.000000D+00  0.232118D-01  0.000000D+00  0.000000D+00
     25  0.774662D-01  0.000000D+00  0.000000D+00  0.998792D-01  0.291784D-01
     26  0.272039D-01  0.000000D+00  0.000000D+00 -0.204438D+00 -0.173736D+00
     27  0.000000D+00  0.747914D-01  0.000000D+00  0.000000D+00  0.000000D+00
     28  0.000000D+00  0.000000D+00  0.747914D-01  0.000000D+00  0.000000D+00
     29  0.474752D-01  0.000000D+00  0.000000D+00  0.263047D-01  0.243740D-01
     30  0.542913D-01  0.000000D+00  0.000000D+00 -0.402527D-01 -0.450404D-01
     31  0.000000D+00  0.899591D-01  0.000000D+00  0.000000D+00  0.000000D+00
     32  0.000000D+00  0.000000D+00  0.899591D-01  0.000000D+00  0.000000D+00
     33  0.402527D-01  0.000000D+00  0.000000D+00  0.736097D+00 -0.684212D-01
     34  0.450404D-01  0.000000D+00  0.000000D+00 -0.684212D-01 -0.236921D-01
     35  0.450404D-01  0.000000D+00  0.000000D+00 -0.684212D-01 -0.637848D-01
     36  0.000000D+00 -0.633656D-02  0.000000D+00  0.000000D+00  0.000000D+00
     37  0.000000D+00  0.000000D+00 -0.633656D-02  0.000000D+00  0.000000D+00
     38  0.000000D+00  0.000000D+00  0.000000D+00  0.000000D+00  0.000000D+00
     39 -0.205085D-01 -0.343844D-01  0.262047D-02  0.361706D-01  0.256106D+00
     40 -0.359191D-01 -0.602216D-01  0.458955D-02  0.862959D-01  0.116240D+00
     41 -0.172589D-01 -0.289361D-01  0.220525D-02  0.225293D-01  0.228814D-01
     42  0.129902D-01 -0.331569D-02  0.252692D-03 -0.894658D-01  0.539383D+00
     43 -0.331569D-02  0.940875D-02  0.423662D-03  0.269972D+00  0.484357D+00
     44  0.252692D-03  0.423662D-03  0.149355D-01 -0.205748D-01 -0.689196D-01
     45 -0.205053D-01  0.343852D-01 -0.262053D-02  0.361567D-01  0.256193D+00
     46 -0.359133D-01  0.602228D-01 -0.458964D-02  0.862999D-01  0.116252D+00
     47 -0.172559D-01  0.289364D-01 -0.220527D-02  0.225298D-01  0.228819D-01
     48  0.129912D-01  0.331517D-02 -0.252652D-03 -0.895452D-01  0.539438D+00
     49  0.331517D-02  0.940899D-02  0.423671D-03 -0.269938D+00 -0.484485D+00
     50 -0.252652D-03  0.423671D-03  0.149359D-01  0.205722D-01  0.689390D-01
     51  0.343443D-01  0.168948D-01 -0.128757D-02 -0.279489D-01 -0.117176D-01
     52  0.680299D-01  0.334656D-01 -0.255045D-02  0.239300D-02 -0.118937D-01
     53  0.422896D-01  0.208033D-01 -0.158544D-02  0.117118D-01  0.107025D-01
     54 -0.476122D-02 -0.589998D-02  0.449643D-03  0.378573D-01  0.157596D-01
     55 -0.589998D-02  0.433010D-02  0.221191D-03  0.233384D-01  0.303700D-02
     56  0.449643D-03  0.221191D-03  0.721559D-02 -0.177865D-02 -0.590827D-03
     57  0.343443D-01 -0.168948D-01  0.128757D-02 -0.279489D-01 -0.117176D-01
     58  0.680299D-01 -0.334656D-01  0.255045D-02  0.239300D-02 -0.118937D-01
     59  0.422896D-01 -0.208033D-01  0.158544D-02  0.117118D-01  0.107025D-01
     60 -0.476122D-02  0.589998D-02 -0.449643D-03  0.378573D-01  0.157596D-01
     61  0.589998D-02  0.433010D-02  0.221191D-03 -0.233384D-01 -0.303700D-02
     62 -0.449643D-03  0.221191D-03  0.721559D-02  0.177865D-02  0.590827D-03
               16            17            18            19            20 
     16  0.173333D+01
     17  0.000000D+00  0.280000D+01
     18  0.000000D+00  0.000000D+00  0.280000D+01
     19  0.000000D+00  0.000000D+00  0.000000D+00  0.280000D+01
     20 -0.127824D-01  0.000000D+00  0.000000D+00  0.000000D+00  0.162076D+02
     21 -0.704548D-01  0.000000D+00  0.000000D+00  0.000000D+00 -0.124757D+01
     22  0.438665D-01  0.000000D+00  0.000000D+00  0.000000D+00  0.000000D+00
     23  0.000000D+00  0.151537D+00  0.000000D+00  0.000000D+00  0.000000D+00
     24  0.000000D+00  0.000000D+00  0.151537D+00  0.000000D+00  0.000000D+00
     25  0.291784D-01  0.000000D+00  0.000000D+00  0.000000D+00  0.899505D-01
     26 -0.173736D+00  0.000000D+00  0.000000D+00  0.000000D+00  0.000000D+00
     27  0.000000D+00  0.118229D+00  0.000000D+00  0.000000D+00  0.000000D+00
     28  0.000000D+00  0.000000D+00  0.118229D+00  0.000000D+00  0.000000D+00
     29  0.243740D-01  0.000000D+00  0.000000D+00  0.000000D+00  0.907972D-02
     30 -0.450404D-01  0.000000D+00  0.000000D+00  0.000000D+00  0.000000D+00
     31  0.000000D+00  0.633656D-02  0.000000D+00  0.000000D+00  0.000000D+00
     32  0.000000D+00  0.000000D+00  0.633656D-02  0.000000D+00  0.000000D+00
     33 -0.684212D-01  0.000000D+00  0.000000D+00  0.000000D+00 -0.524817D+00
     34 -0.637848D-01  0.000000D+00  0.000000D+00  0.000000D+00 -0.524817D+00
     35 -0.236921D-01  0.000000D+00  0.000000D+00  0.000000D+00 -0.524817D+00
     36  0.000000D+00 -0.565623D+00  0.000000D+00  0.000000D+00  0.000000D+00
     37  0.000000D+00  0.000000D+00 -0.565623D+00  0.000000D+00  0.000000D+00
     38  0.000000D+00  0.000000D+00  0.000000D+00  0.601391D-01  0.000000D+00
     39 -0.832931D-01  0.352674D+00 -0.268776D-01 -0.450628D-01 -0.419389D-03
     40  0.700312D-01  0.480158D-01 -0.365933D-02 -0.613521D-02 -0.455970D-02
     41  0.223381D-01  0.564556D-03 -0.430254D-04 -0.721361D-04  0.228936D-02
     42 -0.444920D-01  0.243008D+00 -0.185199D-01 -0.775226D-01 -0.756106D-04
     43 -0.745949D-01  0.800279D+00 -0.775226D-01 -0.102255D+00 -0.371947D-04
     44  0.376912D-01 -0.775226D-01 -0.211023D+00 -0.353799D+00  0.283465D-05
     45 -0.832941D-01 -0.352701D+00  0.268797D-01 -0.450745D-01 -0.419658D-03
     46  0.700400D-01 -0.480106D-01  0.365893D-02 -0.613565D-02 -0.455967D-02
     47  0.223386D-01 -0.564465D-03  0.430184D-04 -0.721374D-04  0.228959D-02
     48 -0.444811D-01 -0.242834D+00  0.185067D-01 -0.775283D-01 -0.756836D-04
     49  0.745902D-01  0.800329D+00 -0.775283D-01  0.102280D+00  0.372326D-04
     50 -0.377005D-01 -0.775283D-01 -0.211048D+00  0.353906D+00 -0.283754D-05
     51 -0.656600D-02 -0.182447D-01  0.139045D-02  0.683997D-03 -0.348927D-01
     52 -0.164281D-01  0.160589D-01 -0.122386D-02 -0.602049D-03  0.244814D-01
     53  0.103821D-01  0.113454D-02 -0.864648D-04 -0.425342D-04  0.501280D-02
     54  0.570352D-02  0.315301D-01 -0.240294D-02 -0.133516D-02  0.527799D-01
     55  0.280570D-02  0.921772D-02 -0.133516D-02 -0.345573D-03  0.884903D-01
     56  0.145549D-03 -0.133516D-02 -0.819984D-02 -0.403370D-02 -0.674393D-02
     57 -0.656600D-02  0.182447D-01 -0.139045D-02  0.683997D-03 -0.348927D-01
     58 -0.164281D-01 -0.160589D-01  0.122386D-02 -0.602049D-03  0.244814D-01
     59  0.103821D-01 -0.113454D-02  0.864648D-04 -0.425342D-04  0.501280D-02
     60  0.570352D-02 -0.315301D-01  0.240294D-02 -0.133516D-02  0.527799D-01
     61 -0.280570D-02  0.921772D-02 -0.133516D-02  0.345573D-03 -0.884903D-01
     62 -0.145549D-03 -0.133516D-02 -0.819984D-02  0.403370D-02  0.674393D-02
               21            22            23            24            25 
     21  0.932246D+00
     22  0.000000D+00  0.217833D+01
     23  0.000000D+00  0.000000D+00  0.217833D+01
     24  0.000000D+00  0.000000D+00  0.000000D+00  0.217833D+01
     25  0.306718D+00  0.000000D+00  0.000000D+00  0.000000D+00  0.253072D+00
     26  0.000000D+00  0.376673D+00  0.000000D+00  0.000000D+00  0.000000D+00
     27  0.000000D+00  0.000000D+00  0.376673D+00  0.000000D+00  0.000000D+00
     28  0.000000D+00  0.000000D+00  0.000000D+00  0.376673D+00  0.000000D+00
     29  0.486595D-01  0.000000D+00  0.000000D+00  0.000000D+00  0.759086D-01
     30  0.000000D+00  0.335613D-01  0.000000D+00  0.000000D+00  0.000000D+00
     31  0.000000D+00  0.000000D+00  0.335613D-01  0.000000D+00  0.000000D+00
     32  0.000000D+00  0.000000D+00  0.000000D+00  0.335613D-01  0.000000D+00
     33  0.520042D+00  0.000000D+00  0.000000D+00  0.000000D+00  0.226288D+00
     34  0.520042D+00  0.000000D+00  0.000000D+00  0.000000D+00  0.226288D+00
     35  0.520042D+00  0.000000D+00  0.000000D+00  0.000000D+00  0.226288D+00
     36  0.000000D+00  0.000000D+00  0.000000D+00  0.000000D+00  0.000000D+00
     37  0.000000D+00  0.000000D+00  0.000000D+00  0.000000D+00  0.000000D+00
     38  0.000000D+00  0.000000D+00  0.000000D+00  0.000000D+00  0.000000D+00
     39 -0.166226D-01  0.235438D-01  0.115818D-01 -0.882657D-03 -0.138008D-01
     40 -0.123605D-01 -0.130800D-01 -0.643438D-02  0.490370D-03  0.867632D-02
     41  0.135463D-01 -0.700484D-02 -0.344585D-02  0.262612D-03  0.253868D-01
     42 -0.191276D-01  0.267377D-01  0.155253D-01 -0.118320D-02  0.295049D-02
     43 -0.940936D-02  0.155253D-01  0.281464D-02 -0.582044D-03  0.145142D-02
     44  0.717097D-03 -0.118320D-02 -0.582044D-03 -0.477827D-02 -0.110614D-03
     45 -0.166271D-01  0.235484D-01 -0.115846D-01  0.882877D-03 -0.137995D-01
     46 -0.123578D-01 -0.130861D-01  0.643772D-02 -0.490625D-03  0.868226D-02
     47  0.135476D-01 -0.700495D-02  0.344609D-02 -0.262630D-03  0.253888D-01
     48 -0.191331D-01  0.267418D-01 -0.155290D-01  0.118348D-02  0.295409D-02
     49  0.941253D-02 -0.155290D-01  0.281518D-02 -0.582213D-03 -0.145327D-02
     50 -0.717338D-03  0.118348D-02 -0.582213D-03 -0.477993D-02  0.110755D-03
     51  0.450581D-01  0.124547D+00  0.208815D+00 -0.159140D-01  0.957639D-01
     52  0.115741D+00  0.679343D-01  0.113898D+00 -0.868029D-02  0.134592D+00
     53  0.281424D-01  0.366374D-02  0.614260D-02 -0.468133D-03  0.478784D-01
     54 -0.129544D+00 -0.897252D-01 -0.297942D+00  0.227064D-01 -0.488225D-01
     55 -0.217192D+00 -0.297942D+00 -0.411545D+00  0.380694D-01 -0.818555D-01
     56  0.165524D-01  0.227064D-01  0.380694D-01  0.850801D-01  0.623829D-02
     57  0.450581D-01  0.124547D+00 -0.208815D+00  0.159140D-01  0.957639D-01
     58  0.115741D+00  0.679343D-01 -0.113898D+00  0.868029D-02  0.134592D+00
     59  0.281424D-01  0.366374D-02 -0.614260D-02  0.468133D-03  0.478784D-01
     60 -0.129544D+00 -0.897252D-01  0.297942D+00 -0.227064D-01 -0.488225D-01
     61  0.217192D+00  0.297942D+00 -0.411545D+00  0.380694D-01  0.818555D-01
     62 -0.165524D-01 -0.227064D-01  0.380694D-01  0.850801D-01 -0.623829D-02
               26            27            28            29            30 
     26  0.421786D+00
     27  0.000000D+00  0.421786D+00
     28  0.000000D+00  0.000000D+00  0.421786D+00
     29  0.000000D+00  0.000000D+00  0.000000D+00  0.657000D-01
     30  0.102352D+00  0.000000D+00  0.000000D+00  0.000000D+00  0.109500D+00
     31  0.000000D+00  0.102352D+00  0.000000D+00  0.000000D+00  0.000000D+00
     32  0.000000D+00  0.000000D+00  0.102352D+00  0.000000D+00  0.000000D+00
     33  0.000000D+00  0.000000D+00  0.000000D+00  0.388353D-01  0.000000D+00
     34  0.000000D+00  0.000000D+00  0.000000D+00  0.388353D-01  0.000000D+00
     35  0.000000D+00  0.000000D+00  0.000000D+00  0.388353D-01  0.000000D+00
     36  0.000000D+00  0.000000D+00  0.000000D+00  0.000000D+00  0.000000D+00
     37  0.000000D+00  0.000000D+00  0.000000D+00  0.000000D+00  0.000000D+00
     38  0.000000D+00  0.000000D+00  0.000000D+00  0.000000D+00  0.000000D+00
     39 -0.170498D-01 -0.838720D-02  0.639197D-03  0.112122D-01 -0.343443D-01
     40 -0.764339D-01 -0.375997D-01  0.286551D-02  0.282819D-01 -0.680299D-01
     41 -0.257934D-01 -0.126884D-01  0.966997D-03  0.340618D-01 -0.422896D-01
     42 -0.463453D-01 -0.237885D-01  0.181295D-02  0.540179D-02 -0.476122D-02
     43 -0.237885D-01 -0.968936D-02  0.891834D-03  0.265728D-02 -0.589998D-02
     44  0.181295D-02  0.891834D-03  0.194484D-02 -0.202514D-03  0.449643D-03
     45 -0.170611D-01  0.839323D-02 -0.639656D-03  0.112136D-01 -0.343455D-01
     46 -0.764454D-01  0.376074D-01 -0.286610D-02  0.282846D-01 -0.680311D-01
     47 -0.257936D-01  0.126892D-01 -0.967055D-03  0.340635D-01 -0.422890D-01
     48 -0.463552D-01  0.237959D-01 -0.181351D-02  0.540198D-02 -0.476023D-02
     49  0.237959D-01 -0.969106D-02  0.892159D-03 -0.265751D-02  0.590012D-02
     50 -0.181351D-02  0.892159D-03  0.194738D-02  0.202531D-03 -0.449654D-03
     51  0.138571D+00  0.232327D+00 -0.177058D-01  0.283630D-01  0.205085D-01
     52  0.105615D+00  0.177073D+00 -0.134949D-01  0.599688D-01  0.359191D-01
     53  0.125078D-01  0.209705D-01 -0.159818D-02  0.511755D-01  0.172589D-01
     54  0.577996D-01 -0.934137D-01  0.711915D-02 -0.328007D-02  0.129902D-01
     55 -0.934137D-01 -0.431008D-01  0.119359D-01 -0.549934D-02 -0.331569D-02
     56  0.711915D-02  0.119359D-01  0.112606D+00  0.419110D-03  0.252692D-03
     57  0.138571D+00 -0.232327D+00  0.177058D-01  0.283630D-01  0.205085D-01
     58  0.105615D+00 -0.177073D+00  0.134949D-01  0.599688D-01  0.359191D-01
     59  0.125078D-01 -0.209705D-01  0.159818D-02  0.511755D-01  0.172589D-01
     60  0.577996D-01  0.934137D-01 -0.711915D-02 -0.328007D-02  0.129902D-01
     61  0.934137D-01 -0.431008D-01  0.119359D-01  0.549934D-02  0.331569D-02
     62 -0.711915D-02  0.119359D-01  0.112606D+00 -0.419110D-03 -0.252692D-03
               31            32            33            34            35 
     31  0.109500D+00
     32  0.000000D+00  0.109500D+00
     33  0.000000D+00  0.000000D+00  0.173333D+01
     34  0.000000D+00  0.000000D+00 -0.133333D+00  0.173333D+01
     35  0.000000D+00  0.000000D+00 -0.133333D+00 -0.133333D+00  0.173333D+01
     36  0.000000D+00  0.000000D+00  0.000000D+00  0.000000D+00  0.000000D+00
     37  0.000000D+00  0.000000D+00  0.000000D+00  0.000000D+00  0.000000D+00
     38  0.000000D+00  0.000000D+00  0.000000D+00  0.000000D+00  0.000000D+00
     39 -0.168948D-01  0.128757D-02 -0.279489D-01 -0.117176D-01 -0.656600D-02
     40 -0.334656D-01  0.255045D-02  0.239300D-02 -0.118937D-01 -0.164281D-01
     41 -0.208033D-01  0.158544D-02  0.117118D-01  0.107025D-01  0.103821D-01
     42 -0.589998D-02  0.449643D-03 -0.378573D-01 -0.157596D-01 -0.570352D-02
     43  0.433010D-02  0.221191D-03 -0.233384D-01 -0.303700D-02 -0.280570D-02
     44  0.221191D-03  0.721559D-02  0.177865D-02  0.590827D-03 -0.145549D-03
     45  0.168963D-01 -0.128768D-02 -0.279551D-01 -0.117216D-01 -0.656852D-02
     46  0.334680D-01 -0.255063D-02  0.239752D-02 -0.118916D-01 -0.164275D-01
     47  0.208041D-01 -0.158550D-02  0.117128D-01  0.107035D-01  0.103831D-01
     48  0.590012D-02 -0.449654D-03 -0.378663D-01 -0.157658D-01 -0.570620D-02
     49  0.433051D-02  0.221208D-03  0.233460D-01  0.303829D-02  0.280717D-02
     50  0.221208D-03  0.721622D-02 -0.177922D-02 -0.591091D-03  0.145603D-03
     51  0.343844D-01 -0.262047D-02  0.361706D-01  0.256106D+00 -0.832931D-01
     52  0.602216D-01 -0.458955D-02  0.862959D-01  0.116240D+00  0.700312D-01
     53  0.289361D-01 -0.220525D-02  0.225293D-01  0.228814D-01  0.223381D-01
     54 -0.331569D-02  0.252692D-03  0.894658D-01 -0.539383D+00  0.444920D-01
     55  0.940875D-02  0.423662D-03 -0.269972D+00 -0.484357D+00  0.745949D-01
     56  0.423662D-03  0.149355D-01  0.205748D-01  0.689196D-01 -0.376912D-01
     57 -0.343844D-01  0.262047D-02  0.361706D-01  0.256106D+00 -0.832931D-01
     58 -0.602216D-01  0.458955D-02  0.862959D-01  0.116240D+00  0.700312D-01
     59 -0.289361D-01  0.220525D-02  0.225293D-01  0.228814D-01  0.223381D-01
     60  0.331569D-02 -0.252692D-03  0.894658D-01 -0.539383D+00  0.444920D-01
     61  0.940875D-02  0.423662D-03  0.269972D+00  0.484357D+00 -0.745949D-01
     62  0.423662D-03  0.149355D-01 -0.205748D-01 -0.689196D-01  0.376912D-01
               36            37            38            39            40 
     36  0.280000D+01
     37  0.000000D+00  0.280000D+01
     38  0.000000D+00  0.000000D+00  0.280000D+01
     39 -0.182447D-01  0.139045D-02  0.683997D-03  0.139568D+01
     40  0.160589D-01 -0.122386D-02 -0.602049D-03  0.259735D+00  0.241917D+00
     41  0.113454D-02 -0.864648D-04 -0.425342D-04  0.277653D-01  0.599454D-01
     42 -0.315301D-01  0.240294D-02  0.133516D-02  0.000000D+00  0.000000D+00
     43 -0.921772D-02  0.133516D-02  0.345573D-03  0.000000D+00  0.000000D+00
     44  0.133516D-02  0.819984D-02  0.403370D-02  0.000000D+00  0.000000D+00
     45  0.182488D-01 -0.139076D-02  0.684186D-03 -0.219159D-01 -0.430820D-02
     46 -0.160631D-01  0.122418D-02 -0.602237D-03 -0.430820D-02  0.296759D-01
     47 -0.113456D-02  0.864656D-04 -0.425368D-04  0.130243D-01  0.314923D-01
     48  0.315388D-01 -0.240360D-02  0.133563D-02  0.155238D-05 -0.102845D-05
     49 -0.922048D-02  0.133563D-02 -0.345695D-03  0.288431D-01 -0.191086D-01
     50  0.133563D-02  0.820320D-02 -0.403557D-02 -0.219816D-02  0.145629D-02
     51  0.352674D+00 -0.268776D-01 -0.450628D-01 -0.813980D-04 -0.604482D-02
     52  0.480158D-01 -0.365933D-02 -0.613521D-02 -0.604482D-02 -0.129662D-01
     53  0.564556D-03 -0.430254D-04 -0.721361D-04  0.202378D-02  0.752909D-02
     54 -0.243008D+00  0.185199D-01  0.775226D-01  0.295295D-04  0.371934D-02
     55 -0.800279D+00  0.775226D-01  0.102255D+00  0.224620D-04  0.282917D-02
     56  0.775226D-01  0.211023D+00  0.353799D+00 -0.171185D-05 -0.215614D-03
     57 -0.352674D+00  0.268776D-01 -0.450628D-01 -0.250267D-02 -0.135727D-01
     58 -0.480158D-01  0.365933D-02 -0.613521D-02 -0.135727D-01 -0.631044D-02
     59 -0.564556D-03  0.430254D-04 -0.721361D-04  0.688120D-02  0.186351D-01
     60  0.243008D+00 -0.185199D-01  0.775226D-01  0.245225D-02  0.471708D-02
     61 -0.800279D+00  0.775226D-01 -0.102255D+00  0.000000D+00  0.000000D+00
     62  0.775226D-01  0.211023D+00 -0.353799D+00  0.000000D+00  0.000000D+00
               41            42            43            44            45 
     41  0.540000D-01
     42  0.000000D+00  0.275000D+01
     43  0.000000D+00  0.000000D+00  0.275000D+01
     44  0.000000D+00  0.000000D+00  0.000000D+00  0.275000D+01
     45  0.130243D-01 -0.155238D-05 -0.288431D-01  0.219816D-02  0.139568D+01
     46  0.314923D-01  0.102845D-05  0.191086D-01 -0.145629D-02  0.259735D+00
     47  0.367704D-01  0.000000D+00  0.452870D-02 -0.345137D-03  0.277653D-01
     48  0.000000D+00 -0.518895D-02  0.291046D-05  0.000000D+00  0.000000D+00
     49 -0.452870D-02  0.291046D-05  0.488874D-01 -0.412121D-02  0.000000D+00
     50  0.345137D-03  0.000000D+00 -0.412121D-02 -0.487487D-02  0.000000D+00
     51  0.202378D-02 -0.295295D-04 -0.224620D-04  0.171185D-05 -0.250382D-02
     52  0.752909D-02 -0.371934D-02 -0.282917D-02  0.215614D-03 -0.135734D-01
     53  0.175313D-01  0.181534D-02  0.138087D-02 -0.105237D-03  0.688215D-02
     54 -0.181534D-02  0.329066D-05  0.262243D-05  0.000000D+00  0.245360D-02
     55 -0.138087D-02  0.262243D-05  0.183791D-05  0.000000D+00  0.000000D+00
     56  0.105237D-03  0.000000D+00  0.000000D+00  0.000000D+00  0.000000D+00
     57  0.688120D-02 -0.245225D-02  0.000000D+00  0.000000D+00 -0.814386D-04
     58  0.186351D-01 -0.471708D-02  0.000000D+00  0.000000D+00 -0.604572D-02
     59  0.273906D-01  0.370925D-02  0.000000D+00  0.000000D+00  0.202425D-02
     60 -0.370925D-02  0.164275D-02  0.000000D+00  0.000000D+00  0.295472D-04
     61  0.000000D+00  0.000000D+00 -0.825743D-04  0.000000D+00 -0.224765D-04
     62  0.000000D+00  0.000000D+00  0.000000D+00 -0.825743D-04  0.171295D-05
               46            47            48            49            50 
     46  0.241917D+00
     47  0.599454D-01  0.540000D-01
     48  0.000000D+00  0.000000D+00  0.275000D+01
     49  0.000000D+00  0.000000D+00  0.000000D+00  0.275000D+01
     50  0.000000D+00  0.000000D+00  0.000000D+00  0.000000D+00  0.275000D+01
     51 -0.135734D-01  0.688215D-02 -0.245360D-02  0.000000D+00  0.000000D+00
     52 -0.630725D-02  0.186371D-01 -0.471571D-02  0.000000D+00  0.000000D+00
     53  0.186371D-01  0.273923D-01  0.370945D-02  0.000000D+00  0.000000D+00
     54  0.471571D-02 -0.370945D-02  0.164400D-02  0.000000D+00  0.000000D+00
     55  0.000000D+00  0.000000D+00  0.000000D+00 -0.826450D-04  0.000000D+00
     56  0.000000D+00  0.000000D+00  0.000000D+00  0.000000D+00 -0.826450D-04
     57 -0.604572D-02  0.202425D-02 -0.295472D-04  0.224765D-04 -0.171295D-05
     58 -0.129665D-01  0.753023D-02 -0.371970D-02  0.282956D-02 -0.215643D-03
     59  0.753023D-02  0.175325D-01  0.181546D-02 -0.138101D-02  0.105248D-03
     60  0.371970D-02 -0.181546D-02  0.329333D-05 -0.262467D-05  0.000000D+00
     61 -0.282956D-02  0.138101D-02 -0.262467D-05  0.183955D-05  0.000000D+00
     62  0.215643D-03 -0.105248D-03  0.000000D+00  0.000000D+00  0.000000D+00
               51            52            53            54            55 
     51  0.139568D+01
     52  0.259735D+00  0.241917D+00
     53  0.277653D-01  0.599454D-01  0.540000D-01
     54  0.000000D+00  0.000000D+00  0.000000D+00  0.275000D+01
     55  0.000000D+00  0.000000D+00  0.000000D+00  0.000000D+00  0.275000D+01
     56  0.000000D+00  0.000000D+00  0.000000D+00  0.000000D+00  0.000000D+00
     57 -0.219159D-01 -0.430820D-02  0.130243D-01  0.000000D+00  0.288431D-01
     58 -0.430820D-02  0.296759D-01  0.314923D-01  0.000000D+00 -0.191086D-01
     59  0.130243D-01  0.314923D-01  0.367704D-01  0.000000D+00 -0.452870D-02
     60  0.000000D+00  0.000000D+00  0.000000D+00 -0.518895D-02  0.000000D+00
     61 -0.288431D-01  0.191086D-01  0.452870D-02  0.000000D+00  0.488874D-01
     62  0.219816D-02 -0.145629D-02 -0.345137D-03  0.000000D+00 -0.412121D-02
               56            57            58            59            60 
     56  0.275000D+01
     57 -0.219816D-02  0.139568D+01
     58  0.145629D-02  0.259735D+00  0.241917D+00
     59  0.345137D-03  0.277653D-01  0.599454D-01  0.540000D-01
     60  0.000000D+00  0.000000D+00  0.000000D+00  0.000000D+00  0.275000D+01
     61 -0.412121D-02  0.000000D+00  0.000000D+00  0.000000D+00  0.000000D+00
     62 -0.487487D-02  0.000000D+00  0.000000D+00  0.000000D+00  0.000000D+00
               61            62 
     61  0.275000D+01
     62  0.000000D+00  0.275000D+01
 Entering OneElI...
 Calculate potential energy integrals
    NBasis =  62  MinDer = 0  MaxDer = 0
 Requested accuracy = 0.1000D-12
 PrsmSu:  NPrtUS=   4 ThrOK=T IAlg=1
 PRISM was handed    33538402 working-precision words and   351 shell-pairs
 PRISM was handed    33538402 working-precision words and   351 shell-pairs
 PRISM was handed    33538402 working-precision words and   351 shell-pairs
 PRISM was handed    33538402 working-precision words and   351 shell-pairs
 IPart=  3 NShTot=         498 NBatch=          83 AvBLen=         6.0
 IPart=  1 NShTot=         546 NBatch=          91 AvBLen=         6.0
 IPart=  0 NShTot=         552 NBatch=          92 AvBLen=         6.0
 IPart=  2 NShTot=         510 NBatch=          85 AvBLen=         6.0
 ***** Potential Energy ***** 
                1             2             3             4             5 
      1  0.380111D+02
      2  0.325807D+01  0.957597D+01
      3  0.771199D-01  0.559567D+00  0.103405D+02
      4  0.273982D-05  0.180686D-04 -0.129504D-05  0.100543D+02
      5  0.000000D+00 -0.137702D-05  0.000000D+00 -0.124046D-01  0.989246D+01
      6  0.396383D+01  0.725172D+01  0.564379D+00  0.146592D-04 -0.111719D-05
      7  0.129557D-01  0.408706D+00  0.479783D+01  0.000000D+00  0.000000D+00
      8  0.000000D+00  0.991932D-05  0.000000D+00  0.449346D+01 -0.106001D-01
      9  0.000000D+00  0.000000D+00  0.000000D+00 -0.106001D-01  0.435518D+01
     10  0.147797D+01  0.341674D+01  0.315751D+00  0.700883D-05  0.000000D+00
     11  0.261106D-02  0.121634D+00  0.131627D+01  0.000000D+00  0.000000D+00
     12  0.000000D+00  0.249065D-05  0.000000D+00  0.121423D+01 -0.318705D-02
     13  0.000000D+00  0.000000D+00  0.000000D+00 -0.318705D-02  0.117265D+01
     14  0.113571D+01  0.650782D+01  0.920298D+00  0.418566D-05  0.000000D+00
     15  0.112846D+01  0.627110D+01  0.169848D+00  0.317605D-04 -0.156732D-05
     16  0.112396D+01  0.613257D+01  0.229761D+00  0.568442D-05 -0.128639D-05
     17  0.000000D+00 -0.240030D-05  0.724977D-05  0.294186D+00  0.795481D-02
     18  0.000000D+00  0.000000D+00  0.000000D+00  0.795481D-02  0.397959D+00
     19 -0.597846D-03 -0.183930D-01  0.795481D-02 -0.271467D-05  0.984570D-05
     20  0.623948D-04  0.408702D+00  0.920215D+00  0.000000D+00  0.000000D+00
     21  0.408703D+00  0.205885D+01  0.289115D+01  0.135423D-05  0.000000D+00
     22 -0.920215D+00 -0.289115D+01 -0.346929D+01 -0.235961D-05  0.000000D+00
     23  0.000000D+00  0.115756D-05  0.111076D-05  0.105680D+01 -0.705174D-03
     24  0.000000D+00  0.000000D+00  0.000000D+00 -0.705174D-03  0.104760D+01
     25  0.139342D+01  0.336504D+01  0.251063D+01  0.549558D-05  0.000000D+00
     26 -0.281683D+01 -0.516442D+01 -0.177749D+01 -0.104833D-04  0.000000D+00
     27  0.000000D+00  0.380280D-05  0.000000D+00  0.195607D+01 -0.293081D-02
     28  0.000000D+00  0.000000D+00  0.000000D+00 -0.293081D-02  0.191784D+01
     29  0.112161D+01  0.268781D+01  0.791092D+00  0.548033D-05  0.000000D+00
     30 -0.117475D+01 -0.253940D+01  0.280609D+00 -0.545757D-05  0.000000D+00
     31  0.000000D+00  0.196637D-05  0.000000D+00  0.944144D+00 -0.218832D-02
     32  0.000000D+00  0.000000D+00  0.000000D+00 -0.218832D-02  0.915596D+00
     33  0.111394D+01  0.344930D+01  0.429684D+01  0.240917D-05  0.000000D+00
     34  0.153500D-01  0.848399D+00  0.130891D+01  0.000000D+00  0.000000D+00
     35  0.153083D-01  0.841616D+00  0.129773D+01  0.000000D+00  0.000000D+00
     36  0.000000D+00 -0.196978D-05 -0.195670D-05 -0.169938D+01  0.821683D-03
     37  0.000000D+00  0.000000D+00  0.000000D+00  0.821683D-03 -0.168866D+01
     38 -0.553140D-05 -0.900660D-03 -0.148469D-02  0.000000D+00  0.000000D+00
     39  0.671979D+00  0.224164D+01 -0.142926D+01 -0.249354D+01  0.190035D+00
     40  0.197591D+01  0.406448D+01 -0.776878D+00 -0.173537D+01  0.132254D+00
     41  0.109914D+01  0.258622D+01  0.619489D-01 -0.280641D+00  0.213879D-01
     42  0.458763D+00  0.137021D+01 -0.970619D-02 -0.196610D+01  0.149838D+00
     43  0.766277D+00  0.221047D+01 -0.186088D+01 -0.206605D+01  0.242979D+00
     44 -0.583987D-01 -0.168462D+00  0.141820D+00  0.242979D+00  0.110367D+01
     45  0.672138D+00  0.224195D+01 -0.142921D+01  0.249394D+01 -0.190066D+00
     46  0.197603D+01  0.406470D+01 -0.776726D+00  0.173548D+01 -0.132263D+00
     47  0.109916D+01  0.258626D+01  0.619824D-01  0.280655D+00 -0.213890D-01
     48  0.458855D+00  0.137021D+01 -0.931329D-02  0.196616D+01 -0.149843D+00
     49 -0.766567D+00 -0.221084D+01  0.186092D+01 -0.206649D+01  0.243029D+00
     50  0.584208D-01  0.168491D+00 -0.141822D+00  0.243029D+00  0.110388D+01
     51  0.818200D-03  0.804031D-01  0.155888D+00  0.649989D-01 -0.495363D-02
     52  0.316855D+00  0.104515D+01  0.100431D+01  0.403465D+00 -0.307484D-01
     53  0.725417D+00  0.179423D+01  0.592461D+00  0.191428D+00 -0.145889D-01
     54 -0.494246D-04 -0.705983D-01 -0.146683D+00 -0.715196D-01  0.545058D-02
     55 -0.245957D-04 -0.423129D-01 -0.975722D-01 -0.247110D-01  0.304996D-02
     56  0.187446D-05  0.322471D-02  0.743607D-02  0.304996D-02  0.150765D-01
     57  0.818200D-03  0.804030D-01  0.155888D+00 -0.649988D-01  0.495362D-02
     58  0.316855D+00  0.104515D+01  0.100431D+01 -0.403461D+00  0.307482D-01
     59  0.725417D+00  0.179423D+01  0.592461D+00 -0.191420D+00  0.145883D-01
     60 -0.494246D-04 -0.705982D-01 -0.146683D+00  0.715195D-01 -0.545057D-02
     61  0.245957D-04  0.423129D-01  0.975721D-01 -0.247110D-01  0.304995D-02
     62 -0.187446D-05 -0.322471D-02 -0.743607D-02  0.304995D-02  0.150764D-01
                6             7             8             9            10 
      6  0.760917D+01
      7  0.845999D+00  0.662416D+01
      8  0.963980D-05  0.587277D-05  0.585938D+01
      9  0.000000D+00  0.000000D+00 -0.178413D-01  0.562664D+01
[...]
  57 6   H  1S         -0.34107   0.00000   0.15388   0.00000   0.00000
  58        2S          0.16290   0.00000  -0.44572   0.00000   0.00000
  59        3S          0.49596  -0.00001  -0.21966   0.00000   0.00000
  60        4PX        -0.31409   0.00000   0.45499   0.00000   0.00000
  61        4PY        -0.00191  -0.03029   0.20249   0.03920   0.03734
  62        4PZ         0.00015  -0.39749  -0.01543   0.51434   0.49000
                          51        52        53        54        55
                           V         V         V         V         V
     Eigenvalues --     2.53889   2.59408   2.68337   2.74506   2.75600
   1 1   C  1S          0.07374   0.00000   0.00000  -0.03265   0.00006
   2        2S          0.15653   0.00000   0.00000  -0.01860   0.00000
   3        2PX        -0.61665   0.00000   0.00000  -0.17461   0.00030
   4        2PY        -0.00001   0.00441   0.00000   0.00053   0.37436
   5        2PZ         0.00000   0.05789   0.00002  -0.00004  -0.02853
   6        3S         -3.47855   0.00000   0.00001   0.55923  -0.00086
   7        3PX        -2.13466   0.00000   0.00000  -0.23909   0.00042
   8        3PY        -0.00009  -0.00396   0.00000   0.00171   1.18215
   9        3PZ         0.00001  -0.05195   0.00003  -0.00013  -0.09009
  10        4S          5.30613   0.00000  -0.00001  -0.11720   0.00058
  11        4PX         1.82555   0.00000   0.00000  -0.02209   0.00019
  12        4PY        -0.00007  -0.00039   0.00000   0.00268   1.83250
  13        4PZ         0.00001  -0.00505  -0.00001  -0.00020  -0.13966
  14        5XX        -0.72035   0.00000   0.00000   0.37040  -0.00051
  15        5YY         0.12203   0.00000   0.08263  -0.41412   0.00055
  16        5ZZ         0.65363   0.00000  -0.08264  -0.15762   0.00028
  17        5XY         0.00002   0.05803   0.00000   0.00055   0.38511
  18        5XZ         0.00000   0.76147  -0.00005  -0.00004  -0.02935
  19        5YZ         0.04706   0.00001   0.62238   0.02270  -0.00002
  20 2   C  1S         -0.07374   0.00000   0.00000  -0.03265   0.00005
  21        2S         -0.15651   0.00000   0.00000  -0.01860  -0.00003
  22        2PX        -0.61666   0.00000   0.00000   0.17455  -0.00024
  23        2PY         0.00000  -0.00441   0.00000  -0.00052  -0.37439
  24        2PZ         0.00000  -0.05790   0.00000   0.00004   0.02853
  25        3S          3.47844   0.00000  -0.00001   0.55930  -0.00081
  26        3PX        -2.13470   0.00000   0.00000   0.23906  -0.00037
  27        3PY         0.00003   0.00396   0.00000  -0.00174  -1.18208
  28        3PZ         0.00000   0.05196  -0.00001   0.00013   0.09009
  29        4S         -5.30610   0.00000   0.00001  -0.11791  -0.00026
  30        4PX         1.82556   0.00000   0.00000   0.02228   0.00004
  31        4PY         0.00006   0.00039   0.00000  -0.00267  -1.83238
  32        4PZ         0.00000   0.00505   0.00001   0.00020   0.13965
  33        5XX         0.72033   0.00000   0.00000   0.37039  -0.00053
  34        5YY        -0.12203  -0.00001  -0.08262  -0.41415   0.00060
  35        5ZZ        -0.65358   0.00001   0.08262  -0.15765   0.00022
  36        5XY         0.00001   0.05803   0.00000   0.00058   0.38501
  37        5XZ         0.00000   0.76149  -0.00002  -0.00004  -0.02934
  38        5YZ        -0.04705  -0.00005  -0.62225   0.02270  -0.00003
  39 3   H  1S          0.13232   0.00000   0.00000   0.01903  -0.02854
  40        2S         -0.25094   0.00000   0.00000  -0.25007   1.05488
  41        3S          0.38271   0.00000   0.00000   0.06699   1.19359
  42        4PX         0.19127   0.00000   0.00000   0.38193   0.47103
  43        4PY        -0.26925   0.02843   0.03519  -0.35166   0.19166
  44        4PZ         0.02052   0.37307   0.46179   0.02680  -0.01461
  45 4   H  1S          0.13236   0.00000   0.00000   0.01915   0.02853
  46        2S         -0.25080   0.00000   0.00000  -0.25314  -1.05409
  47        3S          0.38279   0.00000   0.00000   0.06349  -1.19382
  48        4PX         0.19132   0.00000   0.00000   0.38062  -0.47207
  49        4PY         0.26921   0.02843  -0.03520   0.35219   0.19056
  50        4PZ        -0.02052   0.37302  -0.46193  -0.02684  -0.01452
  51 5   H  1S         -0.13232   0.00000   0.00000   0.01902  -0.02853
  52        2S          0.25090   0.00000   0.00000  -0.25000   1.05478
  53        3S         -0.38282   0.00000   0.00000   0.06697   1.19349
  54        4PX         0.19129   0.00000   0.00000  -0.38196  -0.47100
  55        4PY        -0.26926  -0.02843   0.03519   0.35163  -0.19167
  56        4PZ         0.02052  -0.37303   0.46174  -0.02680   0.01461
  57 6   H  1S         -0.13231   0.00000   0.00000   0.01913   0.02847
  58        2S          0.25091   0.00000   0.00000  -0.25309  -1.05400
  59        3S         -0.38272   0.00000   0.00000   0.06350  -1.19363
  60        4PX         0.19132   0.00000   0.00000  -0.38058   0.47207
  61        4PY         0.26927  -0.02843  -0.03519  -0.35214  -0.19062
  62        4PZ        -0.02052  -0.37311  -0.46173   0.02684   0.01453
                          56        57        58        59        60
                           V         V         V         V         V
     Eigenvalues --     2.99725   3.19898   3.34133   3.50205   3.75131
   1 1   C  1S         -0.05908  -0.05511   0.00003  -0.13212  -0.00001
   2        2S          0.63663   0.53885   0.00010   0.42454  -0.00002
   3        2PX         0.29438  -0.35005   0.00002  -0.57884   0.00005
   4        2PY         0.00001  -0.00005   0.71759   0.00025  -0.50080
   5        2PZ         0.00000   0.00000  -0.05469  -0.00002   0.03817
   6        3S          0.34618   0.51971  -0.00041   1.91922   0.00006
   7        3PX        -0.27057  -0.20648  -0.00016   0.36128   0.00001
   8        3PY        -0.00001  -0.00008   0.39611   0.00014  -0.71863
   9        3PZ         0.00000   0.00001  -0.03019  -0.00001   0.05477
  10        4S          1.35912   0.00205   0.00048  -1.00527  -0.00037
  11        4PX         0.25191   0.04807   0.00013  -0.23138  -0.00012
  12        4PY         0.00006   0.00007  -0.04396   0.00002  -0.62015
  13        4PZ         0.00000  -0.00001   0.00335   0.00000   0.04726
  14        5XX         0.75132  -0.16019   0.00007  -0.70048   0.00001
  15        5YY        -0.42554   0.55429   0.00008   0.56326  -0.00013
  16        5ZZ        -0.44554  -0.37686   0.00007  -0.66637  -0.00002
  17        5XY         0.00001   0.00020  -0.66023  -0.00010   1.12860
  18        5XZ         0.00000  -0.00002   0.05032   0.00001  -0.08601
  19        5YZ        -0.00177  -0.08242   0.00000  -0.10884   0.00001
  20 2   C  1S          0.05909  -0.05516  -0.00004   0.13211  -0.00001
  21        2S         -0.63658   0.53890   0.00019  -0.42431   0.00003
  22        2PX         0.29440   0.35019   0.00019  -0.57872   0.00002
  23        2PY         0.00000  -0.00020   0.71748   0.00015   0.50072
  24        2PZ         0.00000   0.00002  -0.05468  -0.00001  -0.03816
  25        3S         -0.34626   0.52046   0.00060  -1.91906   0.00001
  26        3PX        -0.27060   0.20635  -0.00009   0.36131   0.00002
  27        3PY         0.00000  -0.00010   0.39608   0.00008   0.71862
  28        3PZ         0.00000   0.00001  -0.03019  -0.00001  -0.05477
  29        4S         -1.35905   0.00166  -0.00044   1.00525   0.00032
  30        4PX         0.25189  -0.04795   0.00011  -0.23140  -0.00008
  31        4PY        -0.00002  -0.00004  -0.04417  -0.00004   0.62012
  32        4PZ         0.00000   0.00000   0.00337   0.00000  -0.04726
  33        5XX        -0.75134  -0.16028  -0.00017   0.70038  -0.00004
  34        5YY         0.42562   0.55441   0.00028  -0.56298   0.00000
  35        5ZZ         0.44557  -0.37709  -0.00023   0.66623  -0.00002
  36        5XY         0.00000  -0.00011   0.66030   0.00020   1.12857
  37        5XZ         0.00000   0.00001  -0.05032  -0.00002  -0.08601
  38        5YZ         0.00177  -0.08245  -0.00004   0.10880   0.00000
  39 3   H  1S         -0.01859  -0.34399   0.43108  -0.40220  -0.53884
  40        2S         -0.38854  -0.35475   0.40948  -0.34127  -0.50015
  41        3S         -0.04252   0.03989  -0.13134   0.08824  -0.37104
  42        4PX         0.17140  -0.41937   0.37302  -0.48835  -0.19531
  43        4PY        -0.44924  -0.55289   0.60833  -0.37996  -0.63412
  44        4PZ         0.03424   0.04214  -0.04636   0.02896   0.04833
  45 4   H  1S         -0.01855  -0.34387  -0.43116  -0.40249   0.53896
  46        2S         -0.38857  -0.35462  -0.40950  -0.34154   0.50019
  47        3S         -0.04264   0.03974   0.13132   0.08827   0.37106
  48        4PX         0.17143  -0.41924  -0.37295  -0.48853   0.19525
  49        4PY         0.44922   0.55270   0.60849   0.38030  -0.63424
  50        4PZ        -0.03424  -0.04212  -0.04637  -0.02898   0.04834
  51 5   H  1S          0.01857  -0.34393  -0.43127   0.40205  -0.53886
  52        2S          0.38855  -0.35471  -0.40957   0.34124  -0.50017
  53        3S          0.04256   0.03983   0.13150  -0.08818  -0.37100
  54        4PX         0.17144   0.41935   0.37321  -0.48822   0.19535
  55        4PY        -0.44922   0.55276   0.60858  -0.37978   0.63414
  56        4PZ         0.03424  -0.04213  -0.04638   0.02894  -0.04833
  57 6   H  1S          0.01857  -0.34411   0.43092   0.40227   0.53885
  58        2S          0.38854  -0.35496   0.40929   0.34139   0.50014
  59        3S          0.04255   0.03983  -0.13147  -0.08829   0.37102
  60        4PX         0.17145   0.41958  -0.37278  -0.48836  -0.19533
  61        4PY         0.44922  -0.55306   0.60816   0.38006   0.63413
  62        4PZ        -0.03424   0.04215  -0.04635  -0.02896  -0.04833
                          61        62
                           V         V
     Eigenvalues --     4.27552   4.52690
   1 1   C  1S         -0.34299   0.32142
   2        2S          2.07347  -1.91255
   3        2PX         0.21203   0.13693
   4        2PY        -0.00001   0.00005
   5        2PZ         0.00000   0.00000
   6        3S          1.04722  -1.54778
   7        3PX        -0.01077  -0.25352
   8        3PY         0.00006  -0.00002
   9        3PZ         0.00000   0.00000
  10        4S         -0.72941   3.04088
  11        4PX         0.01677   0.55369
  12        4PY         0.00001  -0.00002
  13        4PZ         0.00000   0.00000
  14        5XX        -1.28947   1.72093
  15        5YY        -1.53113   1.64042
  16        5ZZ        -1.26079   1.08309
  17        5XY        -0.00003   0.00001
  18        5XZ         0.00000   0.00000
  19        5YZ         0.02393  -0.04933
  20 2   C  1S         -0.34298  -0.32142
  21        2S          2.07345   1.91264
  22        2PX        -0.21202   0.13694
  23        2PY         0.00000   0.00000
  24        2PZ         0.00000   0.00000
  25        3S          1.04715   1.54776
  26        3PX         0.01076  -0.25353
  27        3PY        -0.00003   0.00002
  28        3PZ         0.00000   0.00000
  29        4S         -0.72947  -3.04088
  30        4PX        -0.01673   0.55369
  31        4PY        -0.00001   0.00002
  32        4PZ         0.00000   0.00000
  33        5XX        -1.28947  -1.72099
  34        5YY        -1.53106  -1.64037
  35        5ZZ        -1.26077  -1.08312
  36        5XY        -0.00002   0.00002
  37        5XZ         0.00000   0.00000
  38        5YZ         0.02392   0.04933
  39 3   H  1S          0.20195  -0.26989
  40        2S         -0.10277   0.04005
  41        3S          0.27339  -0.23220
  42        4PX         0.09375  -0.19556
  43        4PY         0.20181  -0.30973
  44        4PZ        -0.01538   0.02361
  45 4   H  1S          0.20196  -0.26996
  46        2S         -0.10287   0.04009
  47        3S          0.27342  -0.23219
  48        4PX         0.09372  -0.19556
  49        4PY        -0.20178   0.30976
  50        4PZ         0.01538  -0.02361
  51 5   H  1S          0.20194   0.26987
  52        2S         -0.10277  -0.04006
  53        3S          0.27337   0.23219
  54        4PX        -0.09373  -0.19554
  55        4PY        -0.20180  -0.30972
  56        4PZ         0.01538   0.02360
  57 6   H  1S          0.20191   0.26989
  58        2S         -0.10281  -0.04004
  59        3S          0.27338   0.23219
  60        4PX        -0.09373  -0.19554
  61        4PY         0.20178   0.30974
  62        4PZ        -0.01538  -0.02361
          Condensed to atoms (all electrons):
              1          2          3          4          5          6
     1  C    4.818509   0.701262   0.389848   0.389855  -0.024195  -0.024198
     2  C    0.701262   4.818541  -0.024202  -0.024204   0.389840   0.389844
     3  H    0.389848  -0.024202   0.562677  -0.044854   0.014003  -0.023014
     4  H    0.389855  -0.024204  -0.044854   0.562676  -0.023017   0.014004
     5  H   -0.024195   0.389840   0.014003  -0.023017   0.562680  -0.044853
     6  H   -0.024198   0.389844  -0.023014   0.014004  -0.044853   0.562678
 Mulliken atomic charges:
              1
     1  C   -0.251081
     2  C   -0.251082
     3  H    0.125542
     4  H    0.125539
     5  H    0.125542
     6  H    0.125539
 Sum of Mulliken atomic charges =   0.00000
 Mulliken charges with hydrogens summed into heavy atoms:
              1
     1  C    0.000000
     2  C    0.000000
 Sum of Mulliken charges with hydrogens summed into heavy atoms =   0.00000
 Electronic spatial extent (au):  <R**2>=             83.1665
 Charge=              0.0000 electrons
 Dipole moment (field-independent basis, Debye):
    X=              0.0000    Y=              0.0000    Z=              0.0000  Tot=              0.0000
 Quadrupole moment (field-independent basis, Debye-Ang):
   XX=            -12.5478   YY=            -12.3628   ZZ=            -15.9592
   XY=              0.0001   XZ=              0.0000   YZ=             -0.2757
 Traceless Quadrupole moment (field-independent basis, Debye-Ang):
   XX=              1.0755   YY=              1.2604   ZZ=             -2.3359
   XY=              0.0001   XZ=              0.0000   YZ=             -0.2757
 Octapole moment (field-independent basis, Debye-Ang**2):
  XXX=             -0.0002  YYY=              0.0002  ZZZ=              0.0000  XYY=             -0.0002
  XXY=             -0.0001  XXZ=              0.0000  XZZ=             -0.0002  YZZ=              0.0001
  YYZ=              0.0000  XYZ=              0.0000
 Hexadecapole moment (field-independent basis, Debye-Ang**3):
 XXXX=            -70.8133 YYYY=            -28.4178 ZZZZ=            -22.3458 XXXY=              0.0001
 XXXZ=              0.0000 YYYX=             -0.0002 YYYZ=              0.0842 ZZZX=              0.0000
 ZZZY=              0.3810 XXYY=            -14.1116 XXZZ=            -16.4391 YYZZ=             -9.0906
 XXYZ=             -0.1785 YYXZ=              0.0000 ZZXY=             -0.0001
 N-N= 3.336933292054D+01 E-N=-2.480035472447D+02  KE= 7.777331777942D+01
 Orbital energies and kinetic energies (alpha):
                                 1                 2
   1         O               -10.194372         15.874685
   2         O               -10.193493         15.887186
   3         O                -0.765983          1.547054
   4         O                -0.583842          1.293741
   5         O                -0.476749          0.938332
   6         O                -0.421131          1.278507
   7         O                -0.363219          1.053487
   8         O                -0.278056          1.013668
   9         V                -0.009109          0.955755
  10         V                -0.000060          0.208205
  11         V                 0.018812          0.200720
  12         V                 0.021378          0.182300
  13         V                 0.055411          0.140552
  14         V                 0.069152          0.276309
  15         V                 0.082140          0.218036
  16         V                 0.128220          0.230095
  17         V                 0.128544          0.584274
  18         V                 0.134266          0.333538
  19         V                 0.148239          0.432939
  20         V                 0.163762          0.566560
  21         V                 0.181036          0.875896
  22         V                 0.182034          0.463005
  23         V                 0.201415          0.793856
  24         V                 0.248439          0.868242
  25         V                 0.387427          1.487126
  26         V                 0.419156          1.191885
  27         V                 0.578135          1.572755
  28         V                 0.673956          2.098846
  29         V                 0.721221          2.279305
  30         V                 0.737803          1.914995
  31         V                 0.820140          2.771119
  32         V                 0.896458          2.164862
  33         V                 0.918489          1.941334
  34         V                 0.946107          2.497050
  35         V                 0.972505          2.267926
  36         V                 0.994586          2.459120
  37         V                 1.164666          2.259288
  38         V                 1.255530          2.313056
  39         V                 1.372614          2.395009
  40         V                 1.383263          2.516602
  41         V                 1.515677          2.504360
  42         V                 1.857529          3.002882
  43         V                 1.923913          3.100742
  44         V                 1.990506          3.172261
  45         V                 2.007296          2.966581
  46         V                 2.084877          3.194045
  47         V                 2.144012          3.094528
  48         V                 2.240678          3.133996
  49         V                 2.354870          3.234657
  50         V                 2.451274          3.365184
  51         V                 2.538889          4.099316
  52         V                 2.594075          3.669429
  53         V                 2.683373          3.675529
  54         V                 2.745057          3.772567
  55         V                 2.756004          3.975475
  56         V                 2.997250          4.477295
  57         V                 3.198985          4.704484
  58         V                 3.341326          5.081365
  59         V                 3.502052          5.582290
  60         V                 3.751306          5.369690
  61         V                 4.275518         10.149674
  62         V                 4.526905          9.556633
 Total kinetic energy from orbitals= 7.777331777942D+01

 Test job not archived.
 1|1|UNPC-DESKTOP-I8A3P4U|SP|RB3LYP|6-31++G(d,p)|C2H4|ASUS|06-Apr-2022|
 0||# SP B3LYP/6-31++G** IOP(3/33=1) IOP(6/7=3) Symmetry=None MaxDisk=2
 GB||ethylene_cofacial_m1||0,1|C,0,-0.6672,0.,0.|C,0,0.6672,0.,0.|H,0,-
 1.2213,-0.929,0.0708|H,0,-1.2212,0.929,-0.0708|H,0,1.2213,0.929,-0.070
 8|H,0,1.2213,-0.929,0.0708||Version=IA32W-G09RevA.02|HF=-78.5994925|RM
 SD=8.933e-010|Dipole=0.0000009,0.0000095,-0.0000007|Quadrupole=0.79958
 72,0.9371041,-1.7366913,0.0000628,-0.0000048,-0.2049992|PG=CS [SG(C2H4
 )]||@


 FLOATING POINT NUMBERS ARE LIKE SANDPILES:
 EVERY TIME THAT YOU MOVE ONE, YOU LOSE A LITTLE SAND 
 AND YOU PICK UP A LITTLE DIRT.
 Job cpu time:  0 days  0 hours  0 minutes  3.0 seconds.
 File lengths (MBytes):  RWF=      5 Int=      0 D2E=      0 Chk=      1 Scr=      1
 Normal termination of Gaussian 09 at Wed Apr 06 21:43:54 2022.
