 Entering Link 1 = C:\G09W\l1.exe PID=      3148.
  
 Copyright (c) 1988,1990,1992,1993,1995,1998,2003,2009, Gaussian, Inc.
                  All Rights Reserved.
  
 This is part of the Gaussian(R) 09 program.  It is based on
 the Gaussian(R) 03 system (copyright 2003, Gaussian, Inc.),
 the Gaussian(R) 98 system (copyright 1998, Gaussian, Inc.),
 the Gaussian(R) 94 system (copyright 1995, Gaussian, Inc.),
 the Gaussian 92(TM) system (copyright 1992, Gaussian, Inc.),
 the Gaussian 90(TM) system (copyright 1990, Gaussian, Inc.),
 the Gaussian 88(TM) system (copyright 1988, Gaussian, Inc.),
 the Gaussian 86(TM) system (copyright 1986, Carnegie Mellon
 University), and the Gaussian 82(TM) system (copyright 1983,
 Carnegie Mellon University). Gaussian is a federally registered
 trademark of Gaussian, Inc.
  
 This software contains proprietary and confidential information,
 including trade secrets, belonging to Gaussian, Inc.
  
 This software is provided under written license and may be
 used, copied, transmitted, or stored only in accord with that
 written license.
  
 The following legend is applicable only to US Government
 contracts under FAR:
  
                    RESTRICTED RIGHTS LEGEND
  
 Use, reproduction and disclosure by the US Government is
 subject to restrictions as set forth in subparagraphs (a)
 and (c) of the Commercial Computer Software - Restricted
 Rights clause in FAR 52.227-19.
  
 Gaussian, Inc.
 340 Quinnipiac St., Bldg. 40, Wallingford CT 06492
  
  
 ---------------------------------------------------------------
 Warning -- This program may not be used in any manner that
 competes with the business of Gaussian, Inc. or will provide
 assistance to any competitor of Gaussian, Inc.  The licensee
 of this program is prohibited from giving any competitor of
 Gaussian, Inc. access to this program.  By using this program,
 the user acknowledges that Gaussian, Inc. is engaged in the
 business of creating and licensing software in the field of
 computational chemistry and represents and warrants to the
 licensee that it is not a competitor of Gaussian, Inc. and that
 it will not use this program in any manner prohibited above.
 ---------------------------------------------------------------
  

 Cite this work as:
 Gaussian 09, Revision A.02,
 M. J. Frisch, G. W. Trucks, H. B. Schlegel, G. E. Scuseria, 
 M. A. Robb, J. R. Cheeseman, G. Scalmani, V. Barone, B. Mennucci, 
 G. A. Petersson, H. Nakatsuji, M. Caricato, X. Li, H. P. Hratchian, 
 A. F. Izmaylov, J. Bloino, G. Zheng, J. L. Sonnenberg, M. Hada, 
 M. Ehara, K. Toyota, R. Fukuda, J. Hasegawa, M. Ishida, T. Nakajima, 
 Y. Honda, O. Kitao, H. Nakai, T. Vreven, J. A. Montgomery, Jr., 
 J. E. Peralta, F. Ogliaro, M. Bearpark, J. J. Heyd, E. Brothers, 
 K. N. Kudin, V. N. Staroverov, R. Kobayashi, J. Normand, 
 K. Raghavachari, A. Rendell, J. C. Burant, S. S. Iyengar, J. Tomasi, 
 M. Cossi, N. Rega, J. M. Millam, M. Klene, J. E. Knox, J. B. Cross, 
 V. Bakken, C. Adamo, J. Jaramillo, R. Gomperts, R. E. Stratmann, 
 O. Yazyev, A. J. Austin, R. Cammi, C. Pomelli, J. W. Ochterski, 
 R. L. Martin, K. Morokuma, V. G. Zakrzewski, G. A. Voth, 
 P. Salvador, J. J. Dannenberg, S. Dapprich, A. D. Daniels, 
 O. Farkas, J. B. Foresman, J. V. Ortiz, J. Cioslowski, 
 and D. J. Fox, Gaussian, Inc., Wallingford CT, 2009.
 
 ******************************************
 Gaussian 09:  IA32W-G09RevA.02 11-Jun-2009
                06-Apr-2022 
 ******************************************
 %RWF=ethylene_cofacial_m2.rwf
 %NoSave
 %Chk=ethylene_cofacial_m2.chk
 %NProcShared=4
 Will use up to    4 processors via shared memory.
 %mem=1GB
 ---------------------------------------------------------------------
 # SP B3LYP/6-31++G** IOP(3/33=1) IOP(6/7=3) Symmetry=None MaxDisk=2GB
 ---------------------------------------------------------------------
 1/38=1/1;
 2/12=2,15=1,17=6,18=5,40=1/2;
 3/5=1,6=6,7=1111,11=2,16=1,25=1,30=1,33=1,74=-5/1,2,3;
 4//1;
 5/5=2,38=5/2;
 6/7=3,8=2,9=2,10=2,28=1/1;
 99/5=1,9=1/99;
 --------------------
 ethylene_cofacial_m2
 --------------------
 Symbolic Z-matrix:
 Charge =  0 Multiplicity = 1
 C                    -0.6672    0.        3.5 
 C                     0.6672    0.        3.5 
 H                    -1.2213   -0.929     3.5 
 H                    -1.2212    0.929     3.5 
 H                     1.2213    0.929     3.5 
 H                     1.2213   -0.929     3.5 
 
                          Input orientation:                          
 ---------------------------------------------------------------------
 Center     Atomic      Atomic             Coordinates (Angstroms)
 Number     Number       Type             X           Y           Z
 ---------------------------------------------------------------------
      1          6           0       -0.667200    0.000000    3.500000
      2          6           0        0.667200    0.000000    3.500000
      3          1           0       -1.221300   -0.929000    3.500000
      4          1           0       -1.221200    0.929000    3.500000
      5          1           0        1.221300    0.929000    3.500000
      6          1           0        1.221300   -0.929000    3.500000
 ---------------------------------------------------------------------
                    Distance matrix (angstroms):
                    1          2          3          4          5
     1  C    0.000000
     2  C    1.334400   0.000000
     3  H    1.081697   2.104631   0.000000
     4  H    1.081646   2.104542   1.858000   0.000000
     5  H    2.104631   1.081697   3.068951   2.442500   0.000000
     6  H    2.104631   1.081697   2.442600   3.068871   1.858000
                    6
     6  H    0.000000
 Symmetry turned off by external request.
 Stoichiometry    C2H4
 Framework group  CS[SG(C2H4)]
 Deg. of freedom     9
 Full point group                 CS      NOp   2
 Rotational constants (GHZ):    145.2581918     30.2686045     25.0489546
 Standard basis: 6-31++G(d,p) (6D, 7F)
                         Coordinates in L301:                         
 ---------------------------------------------------------------------
 Center     Atomic      Atomic             Coordinates (Angstroms)
 Number     Number       Type             X           Y           Z
 ---------------------------------------------------------------------
      1          6           0       -0.667200    0.000000    3.500000
      2          6           0        0.667200    0.000000    3.500000
      3          1           0       -1.221300   -0.929000    3.500000
      4          1           0       -1.221200    0.929000    3.500000
      5          1           0        1.221300    0.929000    3.500000
      6          1           0        1.221300   -0.929000    3.500000
 ---------------------------------------------------------------------
 FixB: optimizing general contractions.
 Ernie: Thresh=  0.10000D-02 Tol=  0.10000D-05 Strict=F.
 IA=     1 NL=   1 NS=   0.
 IA=     1 L=0 SC=0 ISt=    0 NBk=    0 NP=    0 IndPr=    0.
 IA=     1 NL=   3 NS=   2.
 IA=     1 L=1 SC=0 ISt=    0 NBk=    0 NP=    0 IndPr=    0.
 IA=     1 NL=   1 NS=   1.
 IA=     1 L=2 SC=2 ISt=    0 NBk=    0 NP=    0 IndPr=    0.
 IA=     2 NL=   1 NS=   0.
 IA=     2 L=0 SC=0 ISt=    0 NBk=    0 NP=    0 IndPr=    0.
 IA=     2 NL=   3 NS=   2.
 IA=     2 L=1 SC=0 ISt=    0 NBk=    0 NP=    0 IndPr=    0.
 IA=     2 NL=   1 NS=   1.
 IA=     2 L=2 SC=2 ISt=    0 NBk=    0 NP=    0 IndPr=    0.
 IA=     3 NL=   3 NS=   2.
 IA=     3 L=0 SC=0 ISt=    0 NBk=    0 NP=    0 IndPr=    0.
 IA=     3 NL=   1 NS=   1.
 IA=     3 L=1 SC=1 ISt=    0 NBk=    0 NP=    0 IndPr=    0.
 IA=     4 NL=   3 NS=   2.
 IA=     4 L=0 SC=0 ISt=    0 NBk=    0 NP=    0 IndPr=    0.
 IA=     4 NL=   1 NS=   1.
 IA=     4 L=1 SC=1 ISt=    0 NBk=    0 NP=    0 IndPr=    0.
 IA=     5 NL=   3 NS=   2.
 IA=     5 L=0 SC=0 ISt=    0 NBk=    0 NP=    0 IndPr=    0.
 IA=     5 NL=   1 NS=   1.
 IA=     5 L=1 SC=1 ISt=    0 NBk=    0 NP=    0 IndPr=    0.
 IA=     6 NL=   3 NS=   2.
 IA=     6 L=0 SC=0 ISt=    0 NBk=    0 NP=    0 IndPr=    0.
 IA=     6 NL=   1 NS=   1.
 IA=     6 L=1 SC=1 ISt=    0 NBk=    0 NP=    0 IndPr=    0.
 LdAtmC:  AtmChg=     6.000000     6.000000     1.000000     1.000000     1.000000
 LdAtmC:  AtmChg=     1.000000
 AtZEff=     -3.6000000     -3.6000000     -1.0000000     -1.0000000     -1.0000000
 AtZEff=     -1.0000000
 Integral buffers will be    262144 words long.
 Raffenetti 2 integral format.
 Two-electron integral symmetry is turned off.
    62 basis functions,    96 primitive gaussians,    62 cartesian basis functions
     8 alpha electrons        8 beta electrons
       nuclear repulsion energy        33.3998281715 Hartrees.
 NAtoms=    6 NActive=    6 NUniq=    6 SFac= 7.50D-01 NAtFMM=   80 NAOKFM=F Big=F
 NPDir=0 NMtPBC=     1 NCelOv=     1 NCel=       1 NClECP=     1 NCelD=      1
         NCelK=      1 NCelE2=     1 NClLst=     1 CellRange=     0.0.
 One-electron integrals computed using PRISM.
 Entering OneElI...
 Calculate overlap and kinetic energy integrals
    NBasis =  62  MinDer = 0  MaxDer = 0
 Requested accuracy = 0.1000D-12
 PrsmSu:  NPrtUS=   4 ThrOK=T IAlg=1
 PRISM was handed    33536518 working-precision words and   351 shell-pairs
 PRISM was handed    33536518 working-precision words and   351 shell-pairs
 PRISM was handed    33536518 working-precision words and   351 shell-pairs
 PRISM was handed    33536518 working-precision words and   351 shell-pairs
 IPart=  3 NShTot=          83 NBatch=          26 AvBLen=         3.2
 IPart=  1 NShTot=          91 NBatch=          31 AvBLen=         2.9
 IPart=  2 NShTot=          85 NBatch=          28 AvBLen=         3.0
 IPart=  0 NShTot=          92 NBatch=          32 AvBLen=         2.9
 *** Overlap *** 
                1             2             3             4             5 
      1  0.100000D+01
      2  0.219059D+00  0.100000D+01
      3  0.000000D+00  0.000000D+00  0.100000D+01
      4  0.000000D+00  0.000000D+00  0.000000D+00  0.100000D+01
      5  0.000000D+00  0.000000D+00  0.000000D+00  0.000000D+00  0.100000D+01
      6  0.184261D+00  0.812273D+00  0.000000D+00  0.000000D+00  0.000000D+00
      7  0.000000D+00  0.000000D+00  0.569754D+00  0.000000D+00  0.000000D+00
      8  0.000000D+00  0.000000D+00  0.000000D+00  0.569754D+00  0.000000D+00
      9  0.000000D+00  0.000000D+00  0.000000D+00  0.000000D+00  0.569754D+00
     10  0.697718D-01  0.402091D+00  0.000000D+00  0.000000D+00  0.000000D+00
     11  0.000000D+00  0.000000D+00  0.164679D+00  0.000000D+00  0.000000D+00
     12  0.000000D+00  0.000000D+00  0.000000D+00  0.164679D+00  0.000000D+00
     13  0.000000D+00  0.000000D+00  0.000000D+00  0.000000D+00  0.164679D+00
     14  0.791027D-01  0.710235D+00  0.000000D+00  0.000000D+00  0.000000D+00
     15  0.791027D-01  0.710235D+00  0.000000D+00  0.000000D+00  0.000000D+00
     16  0.791027D-01  0.710235D+00  0.000000D+00  0.000000D+00  0.000000D+00
     17  0.000000D+00  0.000000D+00  0.000000D+00  0.000000D+00  0.000000D+00
     18  0.000000D+00  0.000000D+00  0.000000D+00  0.000000D+00  0.000000D+00
     19  0.000000D+00  0.000000D+00  0.000000D+00  0.000000D+00  0.000000D+00
     20  0.570152D-05  0.205168D-01  0.445817D-01  0.000000D+00  0.000000D+00
     21  0.205168D-01  0.208939D+00  0.288165D+00  0.000000D+00  0.000000D+00
     22 -0.445817D-01 -0.288165D+00 -0.337475D+00  0.000000D+00  0.000000D+00
     23  0.000000D+00  0.000000D+00  0.000000D+00  0.119568D+00  0.000000D+00
     24  0.000000D+00  0.000000D+00  0.000000D+00  0.000000D+00  0.119568D+00
     25  0.654852D-01  0.364208D+00  0.254963D+00  0.000000D+00  0.000000D+00
     26 -0.130791D+00 -0.565239D+00 -0.166280D+00  0.000000D+00  0.000000D+00
     27  0.000000D+00  0.000000D+00  0.000000D+00  0.246159D+00  0.000000D+00
     28  0.000000D+00  0.000000D+00  0.000000D+00  0.000000D+00  0.246159D+00
     29  0.529528D-01  0.311115D+00  0.670660D-01  0.000000D+00  0.000000D+00
     30 -0.553523D-01 -0.302453D+00  0.612119D-01  0.000000D+00  0.000000D+00
     31  0.000000D+00  0.000000D+00  0.000000D+00  0.127081D+00  0.000000D+00
     32  0.000000D+00  0.000000D+00  0.000000D+00  0.000000D+00  0.127081D+00
     33  0.557018D-01  0.341180D+00  0.418609D+00  0.000000D+00  0.000000D+00
     34  0.121406D-02  0.960381D-01  0.146062D+00  0.000000D+00  0.000000D+00
     35  0.121406D-02  0.960381D-01  0.146062D+00  0.000000D+00  0.000000D+00
     36  0.000000D+00  0.000000D+00  0.000000D+00 -0.188838D+00  0.000000D+00
     37  0.000000D+00  0.000000D+00  0.000000D+00  0.000000D+00 -0.188838D+00
     38  0.000000D+00  0.000000D+00  0.000000D+00  0.000000D+00  0.000000D+00
     39  0.339533D-01  0.278947D+00 -0.191899D+00 -0.321737D+00  0.000000D+00
     40  0.931317D-01  0.479897D+00 -0.136208D+00 -0.228365D+00  0.000000D+00
     41  0.520129D-01  0.308063D+00 -0.229237D-01 -0.384337D-01  0.000000D+00
     42  0.247415D-01  0.151988D+00  0.193708D-01 -0.229146D+00  0.000000D+00
     43  0.414814D-01  0.254822D+00 -0.229146D+00 -0.228140D+00  0.000000D+00
     44  0.000000D+00  0.000000D+00  0.000000D+00  0.000000D+00  0.156044D+00
     45  0.339609D-01  0.278980D+00 -0.191890D+00  0.321780D+00  0.000000D+00
     46  0.931374D-01  0.479920D+00 -0.136190D+00  0.228377D+00  0.000000D+00
     47  0.520137D-01  0.308067D+00 -0.229199D-01  0.384342D-01  0.000000D+00
     48  0.247456D-01  0.151980D+00  0.194218D-01  0.229143D+00  0.000000D+00
     49 -0.414958D-01 -0.254855D+00  0.229143D+00 -0.228180D+00  0.000000D+00
     50  0.000000D+00  0.000000D+00  0.000000D+00  0.000000D+00  0.156069D+00
     51  0.537036D-04  0.889482D-02  0.169908D-01  0.835818D-02  0.000000D+00
     52  0.152042D-01  0.115454D+00  0.105943D+00  0.521159D-01  0.000000D+00
     53  0.343224D-01  0.208265D+00  0.526477D-01  0.258987D-01  0.000000D+00
     54 -0.435690D-05 -0.814460D-02 -0.167696D-01 -0.924389D-02  0.000000D+00
     55 -0.214327D-05 -0.400653D-02 -0.924389D-02 -0.252563D-02  0.000000D+00
     56  0.000000D+00  0.000000D+00  0.000000D+00  0.000000D+00  0.202167D-02
     57  0.537036D-04  0.889482D-02  0.169908D-01 -0.835818D-02  0.000000D+00
     58  0.152042D-01  0.115454D+00  0.105943D+00 -0.521159D-01  0.000000D+00
     59  0.343224D-01  0.208265D+00  0.526477D-01 -0.258987D-01  0.000000D+00
     60 -0.435690D-05 -0.814460D-02 -0.167696D-01  0.924389D-02  0.000000D+00
     61  0.214327D-05  0.400653D-02  0.924389D-02 -0.252563D-02  0.000000D+00
     62  0.000000D+00  0.000000D+00  0.000000D+00  0.000000D+00  0.202167D-02
                6             7             8             9            10 
      6  0.100000D+01
      7  0.000000D+00  0.100000D+01
      8  0.000000D+00  0.000000D+00  0.100000D+01
      9  0.000000D+00  0.000000D+00  0.000000D+00  0.100000D+01
     10  0.727666D+00  0.000000D+00  0.000000D+00  0.000000D+00  0.100000D+01
     11  0.000000D+00  0.588690D+00  0.000000D+00  0.000000D+00  0.000000D+00
     12  0.000000D+00  0.000000D+00  0.588690D+00  0.000000D+00  0.000000D+00
     13  0.000000D+00  0.000000D+00  0.000000D+00  0.588690D+00  0.000000D+00
     14  0.629936D+00  0.000000D+00  0.000000D+00  0.000000D+00  0.323540D+00
     15  0.629936D+00  0.000000D+00  0.000000D+00  0.000000D+00  0.323540D+00
     16  0.629936D+00  0.000000D+00  0.000000D+00  0.000000D+00  0.323540D+00
     17  0.000000D+00  0.000000D+00  0.000000D+00  0.000000D+00  0.000000D+00
     18  0.000000D+00  0.000000D+00  0.000000D+00  0.000000D+00  0.000000D+00
     19  0.000000D+00  0.000000D+00  0.000000D+00  0.000000D+00  0.000000D+00
     20  0.654852D-01  0.130791D+00  0.000000D+00  0.000000D+00  0.529528D-01
     21  0.364208D+00  0.565239D+00  0.000000D+00  0.000000D+00  0.311115D+00
     22 -0.254963D+00 -0.166280D+00  0.000000D+00  0.000000D+00 -0.670660D-01
     23  0.000000D+00  0.000000D+00  0.246159D+00  0.000000D+00  0.000000D+00
     24  0.000000D+00  0.000000D+00  0.000000D+00  0.246159D+00  0.000000D+00
     25  0.584847D+00  0.605764D+00  0.000000D+00  0.000000D+00  0.583318D+00
     26 -0.605764D+00 -0.425818D-01  0.000000D+00  0.000000D+00 -0.249047D+00
     27  0.000000D+00  0.000000D+00  0.584847D+00  0.000000D+00  0.000000D+00
     28  0.000000D+00  0.000000D+00  0.000000D+00  0.584847D+00  0.000000D+00
     29  0.583318D+00  0.249047D+00  0.000000D+00  0.000000D+00  0.870005D+00
     30 -0.488789D+00  0.263223D+00  0.000000D+00  0.000000D+00 -0.459139D+00
     31  0.000000D+00  0.000000D+00  0.471911D+00  0.000000D+00  0.000000D+00
     32  0.000000D+00  0.000000D+00  0.000000D+00  0.471911D+00  0.000000D+00
     33  0.356792D+00  0.422965D+00  0.000000D+00  0.000000D+00  0.255641D+00
     34  0.259733D+00  0.444337D+00  0.000000D+00  0.000000D+00  0.248457D+00
     35  0.259733D+00  0.444337D+00  0.000000D+00  0.000000D+00  0.248457D+00
     36  0.000000D+00  0.000000D+00 -0.162306D+00  0.000000D+00  0.000000D+00
     37  0.000000D+00  0.000000D+00  0.000000D+00 -0.162306D+00  0.000000D+00
     38  0.000000D+00  0.000000D+00  0.000000D+00  0.000000D+00  0.000000D+00
     39  0.380361D+00 -0.264118D+00 -0.442819D+00  0.000000D+00  0.259570D+00
     40  0.708281D+00 -0.297762D+00 -0.499226D+00  0.000000D+00  0.642610D+00
     41  0.586913D+00 -0.887812D-01 -0.148850D+00  0.000000D+00  0.914148D+00
     42  0.887084D-01  0.140095D+00 -0.110921D+00  0.000000D+00  0.167714D-01
     43  0.148728D+00 -0.110921D+00  0.202841D-01  0.000000D+00  0.281188D-01
     44  0.000000D+00  0.000000D+00  0.000000D+00  0.206254D+00  0.000000D+00
     45  0.380381D+00 -0.264085D+00  0.442843D+00  0.000000D+00  0.259574D+00
     46  0.708304D+00 -0.297718D+00  0.499242D+00  0.000000D+00  0.642619D+00
     47  0.586920D+00 -0.887662D-01  0.148852D+00  0.000000D+00  0.914156D+00
     48  0.886976D-01  0.140127D+00  0.110908D+00  0.000000D+00  0.167686D-01
     49 -0.148737D+00  0.110908D+00  0.202852D-01  0.000000D+00 -0.281193D-01
     50  0.000000D+00  0.000000D+00  0.000000D+00  0.206266D+00  0.000000D+00
     51  0.782395D-01  0.184289D+00  0.906561D-01  0.000000D+00  0.160695D+00
     52  0.271263D+00  0.388672D+00  0.191197D+00  0.000000D+00  0.430355D+00
     53  0.415524D+00  0.214226D+00  0.105383D+00  0.000000D+00  0.726329D+00
     54 -0.550879D-01 -0.102445D+00 -0.688820D-01  0.000000D+00 -0.350081D-01
     55 -0.270991D-01 -0.688820D-01  0.369587D-02  0.000000D+00 -0.172213D-01
     56  0.000000D+00  0.000000D+00  0.000000D+00  0.375806D-01  0.000000D+00
     57  0.782395D-01  0.184289D+00 -0.906561D-01  0.000000D+00  0.160695D+00
     58  0.271263D+00  0.388672D+00 -0.191197D+00  0.000000D+00  0.430355D+00
     59  0.415524D+00  0.214226D+00 -0.105383D+00  0.000000D+00  0.726329D+00
     60 -0.550879D-01 -0.102445D+00  0.688820D-01  0.000000D+00 -0.350081D-01
     61  0.270991D-01  0.688820D-01  0.369587D-02  0.000000D+00  0.172213D-01
     62  0.000000D+00  0.000000D+00  0.000000D+00  0.375806D-01  0.000000D+00
               11            12            13            14            15 
     11  0.100000D+01
     12  0.000000D+00  0.100000D+01
     13  0.000000D+00  0.000000D+00  0.100000D+01
     14  0.000000D+00  0.000000D+00  0.000000D+00  0.100000D+01
     15  0.000000D+00  0.000000D+00  0.000000D+00  0.333333D+00  0.100000D+01
     16  0.000000D+00  0.000000D+00  0.000000D+00  0.333333D+00  0.333333D+00
     17  0.000000D+00  0.000000D+00  0.000000D+00  0.000000D+00  0.000000D+00
     18  0.000000D+00  0.000000D+00  0.000000D+00  0.000000D+00  0.000000D+00
     19  0.000000D+00  0.000000D+00  0.000000D+00  0.000000D+00  0.000000D+00
     20  0.553523D-01  0.000000D+00  0.000000D+00  0.557018D-01  0.121406D-02
     21  0.302453D+00  0.000000D+00  0.000000D+00  0.341180D+00  0.960381D-01
     22  0.612119D-01  0.000000D+00  0.000000D+00 -0.418609D+00 -0.146062D+00
     23  0.000000D+00  0.127081D+00  0.000000D+00  0.000000D+00  0.000000D+00
     24  0.000000D+00  0.000000D+00  0.127081D+00  0.000000D+00  0.000000D+00
     25  0.488789D+00  0.000000D+00  0.000000D+00  0.356792D+00  0.259733D+00
     26  0.263223D+00  0.000000D+00  0.000000D+00 -0.422965D+00 -0.444337D+00
     27  0.000000D+00  0.471911D+00  0.000000D+00  0.000000D+00  0.000000D+00
     28  0.000000D+00  0.000000D+00  0.471911D+00  0.000000D+00  0.000000D+00
     29  0.459139D+00  0.000000D+00  0.000000D+00  0.255641D+00  0.248457D+00
     30  0.627698D+00  0.000000D+00  0.000000D+00 -0.228594D+00 -0.248630D+00
     31  0.000000D+00  0.870005D+00  0.000000D+00  0.000000D+00  0.000000D+00
     32  0.000000D+00  0.000000D+00  0.870005D+00  0.000000D+00  0.000000D+00
     33  0.228594D+00  0.000000D+00  0.000000D+00  0.489977D+00  0.159462D+00
     34  0.248630D+00  0.000000D+00  0.000000D+00  0.159462D+00  0.785917D-01
     35  0.248630D+00  0.000000D+00  0.000000D+00  0.159462D+00  0.261972D-01
     36  0.000000D+00 -0.235775D-01  0.000000D+00  0.000000D+00  0.000000D+00
     37  0.000000D+00  0.000000D+00 -0.235775D-01  0.000000D+00  0.000000D+00
     38  0.000000D+00  0.000000D+00  0.000000D+00  0.000000D+00  0.000000D+00
     39 -0.107011D+00 -0.179413D+00  0.000000D+00  0.210170D+00  0.372748D+00
     40 -0.221492D+00 -0.371351D+00  0.000000D+00  0.375363D+00  0.413438D+00
     41 -0.180747D+00 -0.303039D+00  0.000000D+00  0.248366D+00  0.249890D+00
     42  0.694632D-01 -0.118520D-01  0.000000D+00 -0.225202D-01  0.313768D+00
     43 -0.118520D-01  0.566613D-01  0.000000D+00  0.255955D+00  0.232349D+00
     44  0.000000D+00  0.000000D+00  0.765324D-01  0.000000D+00  0.000000D+00
     45 -0.106993D+00  0.179416D+00  0.000000D+00  0.210169D+00  0.372806D+00
     46 -0.221455D+00  0.371356D+00  0.000000D+00  0.375376D+00  0.413460D+00
     47 -0.180715D+00  0.303041D+00  0.000000D+00  0.248369D+00  0.249893D+00
     48  0.694670D-01  0.118501D-01  0.000000D+00 -0.225524D-01  0.313769D+00
     49  0.118501D-01  0.566623D-01  0.000000D+00 -0.255948D+00 -0.232392D+00
     50  0.000000D+00  0.000000D+00  0.765336D-01  0.000000D+00  0.000000D+00
     51  0.225764D+00  0.111059D+00  0.000000D+00  0.155219D-01  0.517207D-02
     52  0.505552D+00  0.248693D+00  0.000000D+00  0.125496D+00  0.866826D-01
     53  0.489458D+00  0.240777D+00  0.000000D+00  0.172304D+00  0.167342D+00
     54 -0.341920D-02 -0.247396D-01  0.000000D+00 -0.143202D-01 -0.487393D-02
     55 -0.247396D-01  0.347022D-01  0.000000D+00 -0.838308D-02 -0.105897D-02
     56  0.000000D+00  0.000000D+00  0.468722D-01  0.000000D+00  0.000000D+00
     57  0.225764D+00 -0.111059D+00  0.000000D+00  0.155219D-01  0.517207D-02
     58  0.505552D+00 -0.248693D+00  0.000000D+00  0.125496D+00  0.866826D-01
     59  0.489458D+00 -0.240777D+00  0.000000D+00  0.172304D+00  0.167342D+00
     60 -0.341920D-02  0.247396D-01  0.000000D+00 -0.143202D-01 -0.487393D-02
     61  0.247396D-01  0.347022D-01  0.000000D+00  0.838308D-02  0.105897D-02
     62  0.000000D+00  0.000000D+00  0.468722D-01  0.000000D+00  0.000000D+00
               16            17            18            19            20 
     16  0.100000D+01
     17  0.000000D+00  0.100000D+01
     18  0.000000D+00  0.000000D+00  0.100000D+01
     19  0.000000D+00  0.000000D+00  0.000000D+00  0.100000D+01
     20  0.121406D-02  0.000000D+00  0.000000D+00  0.000000D+00  0.100000D+01
     21  0.960381D-01  0.000000D+00  0.000000D+00  0.000000D+00  0.219059D+00
     22 -0.146062D+00  0.000000D+00  0.000000D+00  0.000000D+00  0.000000D+00
     23  0.000000D+00  0.188838D+00  0.000000D+00  0.000000D+00  0.000000D+00
     24  0.000000D+00  0.000000D+00  0.188838D+00  0.000000D+00  0.000000D+00
     25  0.259733D+00  0.000000D+00  0.000000D+00  0.000000D+00  0.184261D+00
     26 -0.444337D+00  0.000000D+00  0.000000D+00  0.000000D+00  0.000000D+00
     27  0.000000D+00  0.162306D+00  0.000000D+00  0.000000D+00  0.000000D+00
     28  0.000000D+00  0.000000D+00  0.162306D+00  0.000000D+00  0.000000D+00
     29  0.248457D+00  0.000000D+00  0.000000D+00  0.000000D+00  0.697718D-01
     30 -0.248630D+00  0.000000D+00  0.000000D+00  0.000000D+00  0.000000D+00
     31  0.000000D+00  0.235775D-01  0.000000D+00  0.000000D+00  0.000000D+00
     32  0.000000D+00  0.000000D+00  0.235775D-01  0.000000D+00  0.000000D+00
     33  0.159462D+00  0.000000D+00  0.000000D+00  0.000000D+00  0.791027D-01
     34  0.261972D-01  0.000000D+00  0.000000D+00  0.000000D+00  0.791027D-01
     35  0.785917D-01  0.000000D+00  0.000000D+00  0.000000D+00  0.791027D-01
     36  0.000000D+00 -0.321203D+00  0.000000D+00  0.000000D+00  0.000000D+00
     37  0.000000D+00  0.000000D+00 -0.321203D+00  0.000000D+00  0.000000D+00
     38  0.000000D+00  0.000000D+00  0.000000D+00  0.785917D-01  0.000000D+00
     39  0.120395D+00  0.260700D+00  0.000000D+00  0.000000D+00  0.537036D-04
     40  0.354339D+00  0.610536D-01  0.000000D+00  0.000000D+00  0.152042D-01
     41  0.247525D+00  0.244349D-02  0.000000D+00  0.000000D+00  0.343224D-01
     42  0.637033D-01  0.397425D-02  0.000000D+00  0.000000D+00  0.435690D-05
     43  0.106805D+00  0.281412D+00  0.000000D+00  0.000000D+00  0.214327D-05
     44  0.000000D+00  0.000000D+00 -0.151714D+00 -0.254363D+00  0.000000D+00
     45  0.120413D+00 -0.260695D+00  0.000000D+00  0.000000D+00  0.537433D-04
     46  0.354358D+00 -0.610458D-01  0.000000D+00  0.000000D+00  0.152074D-01
     47  0.247528D+00 -0.244308D-02  0.000000D+00  0.000000D+00  0.343240D-01
     48  0.637035D-01 -0.388172D-02  0.000000D+00  0.000000D+00  0.436153D-05
     49 -0.106824D+00  0.281412D+00  0.000000D+00  0.000000D+00 -0.214566D-05
     50  0.000000D+00  0.000000D+00 -0.151714D+00  0.254409D+00  0.000000D+00
     51  0.186796D-02  0.116337D-01  0.000000D+00  0.000000D+00  0.339533D-01
     52  0.742917D-01  0.436276D-01  0.000000D+00  0.000000D+00  0.931317D-01
     53  0.165758D+00  0.557693D-02  0.000000D+00  0.000000D+00  0.520129D-01
     54 -0.989536D-03 -0.125175D-01  0.000000D+00  0.000000D+00 -0.247415D-01
     55 -0.486778D-03 -0.437131D-02  0.000000D+00  0.000000D+00 -0.414814D-01
     56  0.000000D+00  0.000000D+00  0.235665D-02  0.115929D-02  0.000000D+00
     57  0.186796D-02 -0.116337D-01  0.000000D+00  0.000000D+00  0.339533D-01
     58  0.742917D-01 -0.436276D-01  0.000000D+00  0.000000D+00  0.931317D-01
     59  0.165758D+00 -0.557693D-02  0.000000D+00  0.000000D+00  0.520129D-01
     60 -0.989536D-03  0.125175D-01  0.000000D+00  0.000000D+00 -0.247415D-01
     61  0.486778D-03 -0.437131D-02  0.000000D+00  0.000000D+00  0.414814D-01
     62  0.000000D+00  0.000000D+00  0.235665D-02 -0.115929D-02  0.000000D+00
               21            22            23            24            25 
     21  0.100000D+01
     22  0.000000D+00  0.100000D+01
     23  0.000000D+00  0.000000D+00  0.100000D+01
     24  0.000000D+00  0.000000D+00  0.000000D+00  0.100000D+01
     25  0.812273D+00  0.000000D+00  0.000000D+00  0.000000D+00  0.100000D+01
     26  0.000000D+00  0.569754D+00  0.000000D+00  0.000000D+00  0.000000D+00
     27  0.000000D+00  0.000000D+00  0.569754D+00  0.000000D+00  0.000000D+00
     28  0.000000D+00  0.000000D+00  0.000000D+00  0.569754D+00  0.000000D+00
     29  0.402091D+00  0.000000D+00  0.000000D+00  0.000000D+00  0.727666D+00
     30  0.000000D+00  0.164679D+00  0.000000D+00  0.000000D+00  0.000000D+00
     31  0.000000D+00  0.000000D+00  0.164679D+00  0.000000D+00  0.000000D+00
     32  0.000000D+00  0.000000D+00  0.000000D+00  0.164679D+00  0.000000D+00
     33  0.710235D+00  0.000000D+00  0.000000D+00  0.000000D+00  0.629936D+00
     34  0.710235D+00  0.000000D+00  0.000000D+00  0.000000D+00  0.629936D+00
     35  0.710235D+00  0.000000D+00  0.000000D+00  0.000000D+00  0.629936D+00
     36  0.000000D+00  0.000000D+00  0.000000D+00  0.000000D+00  0.000000D+00
     37  0.000000D+00  0.000000D+00  0.000000D+00  0.000000D+00  0.000000D+00
     38  0.000000D+00  0.000000D+00  0.000000D+00  0.000000D+00  0.000000D+00
     39  0.889482D-02 -0.169908D-01 -0.835818D-02  0.000000D+00  0.782395D-01
     40  0.115454D+00 -0.105943D+00 -0.521159D-01  0.000000D+00  0.271263D+00
     41  0.208265D+00 -0.526477D-01 -0.258987D-01  0.000000D+00  0.415524D+00
     42  0.814460D-02 -0.167696D-01 -0.924389D-02  0.000000D+00  0.550879D-01
     43  0.400653D-02 -0.924389D-02 -0.252563D-02  0.000000D+00  0.270991D-01
     44  0.000000D+00  0.000000D+00  0.000000D+00  0.202167D-02  0.000000D+00
     45  0.889836D-02 -0.169968D-01  0.836157D-02  0.000000D+00  0.782538D-01
     46  0.115473D+00 -0.105955D+00  0.521248D-01  0.000000D+00  0.271293D+00
     47  0.208275D+00 -0.526473D-01  0.258999D-01  0.000000D+00  0.415541D+00
     48  0.814816D-02 -0.167759D-01  0.924796D-02  0.000000D+00  0.550958D-01
     49 -0.400849D-02  0.924796D-02 -0.252688D-02  0.000000D+00 -0.271044D-01
     50  0.000000D+00  0.000000D+00  0.000000D+00  0.202266D-02  0.000000D+00
     51  0.278947D+00  0.191899D+00  0.321737D+00  0.000000D+00  0.380361D+00
     52  0.479897D+00  0.136208D+00  0.228365D+00  0.000000D+00  0.708281D+00
     53  0.308063D+00  0.229237D-01  0.384337D-01  0.000000D+00  0.586913D+00
     54 -0.151988D+00  0.193708D-01 -0.229146D+00  0.000000D+00 -0.887084D-01
     55 -0.254822D+00 -0.229146D+00 -0.228140D+00  0.000000D+00 -0.148728D+00
     56  0.000000D+00  0.000000D+00  0.000000D+00  0.156044D+00  0.000000D+00
     57  0.278947D+00  0.191899D+00 -0.321737D+00  0.000000D+00  0.380361D+00
     58  0.479897D+00  0.136208D+00 -0.228365D+00  0.000000D+00  0.708281D+00
     59  0.308063D+00  0.229237D-01 -0.384337D-01  0.000000D+00  0.586913D+00
     60 -0.151988D+00  0.193708D-01  0.229146D+00  0.000000D+00 -0.887084D-01
     61  0.254822D+00  0.229146D+00 -0.228140D+00  0.000000D+00  0.148728D+00
     62  0.000000D+00  0.000000D+00  0.000000D+00  0.156044D+00  0.000000D+00
               26            27            28            29            30 
     26  0.100000D+01
     27  0.000000D+00  0.100000D+01
     28  0.000000D+00  0.000000D+00  0.100000D+01
     29  0.000000D+00  0.000000D+00  0.000000D+00  0.100000D+01
     30  0.588690D+00  0.000000D+00  0.000000D+00  0.000000D+00  0.100000D+01
     31  0.000000D+00  0.588690D+00  0.000000D+00  0.000000D+00  0.000000D+00
     32  0.000000D+00  0.000000D+00  0.588690D+00  0.000000D+00  0.000000D+00
     33  0.000000D+00  0.000000D+00  0.000000D+00  0.323540D+00  0.000000D+00
     34  0.000000D+00  0.000000D+00  0.000000D+00  0.323540D+00  0.000000D+00
     35  0.000000D+00  0.000000D+00  0.000000D+00  0.323540D+00  0.000000D+00
     36  0.000000D+00  0.000000D+00  0.000000D+00  0.000000D+00  0.000000D+00
     37  0.000000D+00  0.000000D+00  0.000000D+00  0.000000D+00  0.000000D+00
     38  0.000000D+00  0.000000D+00  0.000000D+00  0.000000D+00  0.000000D+00
     39 -0.184289D+00 -0.906561D-01  0.000000D+00  0.160695D+00 -0.225764D+00
     40 -0.388672D+00 -0.191197D+00  0.000000D+00  0.430355D+00 -0.505552D+00
     41 -0.214226D+00 -0.105383D+00  0.000000D+00  0.726329D+00 -0.489458D+00
     42 -0.102445D+00 -0.688820D-01  0.000000D+00  0.350081D-01 -0.341920D-02
     43 -0.688820D-01  0.369587D-02  0.000000D+00  0.172213D-01 -0.247396D-01
     44  0.000000D+00  0.000000D+00  0.375806D-01  0.000000D+00  0.000000D+00
     45 -0.184313D+00  0.906728D-01  0.000000D+00  0.160704D+00 -0.225765D+00
     46 -0.388694D+00  0.191219D+00  0.000000D+00  0.430375D+00 -0.505548D+00
     47 -0.214223D+00  0.105387D+00  0.000000D+00  0.726348D+00 -0.489445D+00
     48 -0.102450D+00  0.688919D-01  0.000000D+00  0.350082D-01 -0.341407D-02
     49  0.688919D-01  0.369660D-02  0.000000D+00 -0.172223D-01  0.247397D-01
     50  0.000000D+00  0.000000D+00  0.375880D-01  0.000000D+00  0.000000D+00
     51  0.264118D+00  0.442819D+00  0.000000D+00  0.259570D+00  0.107011D+00
     52  0.297762D+00  0.499226D+00  0.000000D+00  0.642610D+00  0.221492D+00
     53  0.887812D-01  0.148850D+00  0.000000D+00  0.914148D+00  0.180747D+00
     54  0.140095D+00 -0.110921D+00  0.000000D+00 -0.167714D-01  0.694632D-01
     55 -0.110921D+00  0.202841D-01  0.000000D+00 -0.281188D-01 -0.118520D-01
     56  0.000000D+00  0.000000D+00  0.206254D+00  0.000000D+00  0.000000D+00
     57  0.264118D+00 -0.442819D+00  0.000000D+00  0.259570D+00  0.107011D+00
     58  0.297762D+00 -0.499226D+00  0.000000D+00  0.642610D+00  0.221492D+00
     59  0.887812D-01 -0.148850D+00  0.000000D+00  0.914148D+00  0.180747D+00
     60  0.140095D+00  0.110921D+00  0.000000D+00 -0.167714D-01  0.694632D-01
     61  0.110921D+00  0.202841D-01  0.000000D+00  0.281188D-01  0.118520D-01
     62  0.000000D+00  0.000000D+00  0.206254D+00  0.000000D+00  0.000000D+00
               31            32            33            34            35 
     31  0.100000D+01
     32  0.000000D+00  0.100000D+01
     33  0.000000D+00  0.000000D+00  0.100000D+01
     34  0.000000D+00  0.000000D+00  0.333333D+00  0.100000D+01
     35  0.000000D+00  0.000000D+00  0.333333D+00  0.333333D+00  0.100000D+01
     36  0.000000D+00  0.000000D+00  0.000000D+00  0.000000D+00  0.000000D+00
     37  0.000000D+00  0.000000D+00  0.000000D+00  0.000000D+00  0.000000D+00
     38  0.000000D+00  0.000000D+00  0.000000D+00  0.000000D+00  0.000000D+00
     39 -0.111059D+00  0.000000D+00  0.155219D-01  0.517207D-02  0.186796D-02
     40 -0.248693D+00  0.000000D+00  0.125496D+00  0.866826D-01  0.742917D-01
     41 -0.240777D+00  0.000000D+00  0.172304D+00  0.167342D+00  0.165758D+00
     42 -0.247396D-01  0.000000D+00  0.143202D-01  0.487393D-02  0.989536D-03
     43  0.347022D-01  0.000000D+00  0.838308D-02  0.105897D-02  0.486778D-03
     44  0.000000D+00  0.468722D-01  0.000000D+00  0.000000D+00  0.000000D+00
     45  0.111065D+00  0.000000D+00  0.155279D-01  0.517456D-02  0.186885D-02
     46  0.248705D+00  0.000000D+00  0.125513D+00  0.866983D-01  0.743052D-01
     47  0.240783D+00  0.000000D+00  0.172311D+00  0.167350D+00  0.165766D+00
     48  0.247397D-01  0.000000D+00  0.143267D-01  0.487671D-02  0.990102D-03
     49  0.347041D-01  0.000000D+00 -0.838749D-02 -0.105963D-02 -0.487082D-03
     50  0.000000D+00  0.468748D-01  0.000000D+00  0.000000D+00  0.000000D+00
     51  0.179413D+00  0.000000D+00  0.210170D+00  0.372748D+00  0.120395D+00
     52  0.371351D+00  0.000000D+00  0.375363D+00  0.413438D+00  0.354339D+00
     53  0.303039D+00  0.000000D+00  0.248366D+00  0.249890D+00  0.247525D+00
     54 -0.118520D-01  0.000000D+00  0.225202D-01 -0.313768D+00 -0.637033D-01
     55  0.566613D-01  0.000000D+00 -0.255955D+00 -0.232349D+00 -0.106805D+00
     56  0.000000D+00  0.765324D-01  0.000000D+00  0.000000D+00  0.000000D+00
     57 -0.179413D+00  0.000000D+00  0.210170D+00  0.372748D+00  0.120395D+00
     58 -0.371351D+00  0.000000D+00  0.375363D+00  0.413438D+00  0.354339D+00
     59 -0.303039D+00  0.000000D+00  0.248366D+00  0.249890D+00  0.247525D+00
     60  0.118520D-01  0.000000D+00  0.225202D-01 -0.313768D+00 -0.637033D-01
     61  0.566613D-01  0.000000D+00  0.255955D+00  0.232349D+00  0.106805D+00
     62  0.000000D+00  0.765324D-01  0.000000D+00  0.000000D+00  0.000000D+00
               36            37            38            39            40 
     36  0.100000D+01
     37  0.000000D+00  0.100000D+01
     38  0.000000D+00  0.000000D+00  0.100000D+01
     39  0.116337D-01  0.000000D+00  0.000000D+00  0.100000D+01
     40  0.436276D-01  0.000000D+00  0.000000D+00  0.658292D+00  0.100000D+01
     41  0.557693D-02  0.000000D+00  0.000000D+00  0.270437D+00  0.678946D+00
     42  0.125175D-01  0.000000D+00  0.000000D+00  0.000000D+00  0.000000D+00
     43  0.437131D-02  0.000000D+00  0.000000D+00  0.000000D+00  0.000000D+00
     44  0.000000D+00 -0.235665D-02 -0.115929D-02  0.000000D+00  0.000000D+00
     45 -0.116387D-01  0.000000D+00  0.000000D+00  0.132310D-01  0.130627D+00
     46 -0.436332D-01  0.000000D+00  0.000000D+00  0.130627D+00  0.370053D+00
     47 -0.557689D-02  0.000000D+00  0.000000D+00  0.177355D+00  0.472352D+00
     48 -0.125239D-01  0.000000D+00  0.000000D+00  0.000000D+00 -0.488520D-05
     49  0.437381D-02  0.000000D+00  0.000000D+00 -0.142949D-01 -0.907671D-01
     50  0.000000D+00 -0.235800D-02  0.116002D-02  0.000000D+00  0.000000D+00
     51  0.260700D+00  0.000000D+00  0.000000D+00  0.139973D-04  0.810631D-02
     52  0.610536D-01  0.000000D+00  0.000000D+00  0.810631D-02  0.663904D-01
     53  0.244349D-02  0.000000D+00  0.000000D+00  0.855493D-01  0.252314D+00
     54 -0.397425D-02  0.000000D+00  0.000000D+00 -0.337204D-05 -0.595989D-02
     55 -0.281412D+00  0.000000D+00  0.000000D+00 -0.256499D-05 -0.453348D-02
     56  0.000000D+00  0.151714D+00  0.254363D+00  0.000000D+00  0.000000D+00
     57 -0.260700D+00  0.000000D+00  0.000000D+00  0.727393D-03  0.404052D-01
     58 -0.610536D-01  0.000000D+00  0.000000D+00  0.404052D-01  0.179408D+00
     59 -0.244349D-02  0.000000D+00  0.000000D+00  0.130442D+00  0.362670D+00
     60  0.397425D-02  0.000000D+00  0.000000D+00 -0.494768D-03 -0.337519D-01
     61 -0.281412D+00  0.000000D+00  0.000000D+00  0.000000D+00  0.000000D+00
     62  0.000000D+00  0.151714D+00 -0.254363D+00  0.000000D+00  0.000000D+00
               41            42            43            44            45 
     41  0.100000D+01
     42  0.000000D+00  0.100000D+01
     43  0.000000D+00  0.000000D+00  0.100000D+01
     44  0.000000D+00  0.000000D+00  0.000000D+00  0.100000D+01
     45  0.177355D+00  0.000000D+00  0.142949D-01  0.000000D+00  0.100000D+01
     46  0.472352D+00  0.488520D-05  0.907671D-01  0.000000D+00  0.658292D+00
     47  0.800994D+00  0.169498D-05  0.314927D-01  0.000000D+00  0.270437D+00
     48 -0.169498D-05  0.113588D-02  0.000000D+00  0.000000D+00  0.000000D+00
     49 -0.314927D-01  0.000000D+00 -0.142675D-01  0.000000D+00  0.000000D+00
     50  0.000000D+00  0.000000D+00  0.000000D+00  0.113588D-02  0.000000D+00
     51  0.855493D-01  0.337204D-05  0.256499D-05  0.000000D+00  0.727801D-03
     52  0.252314D+00  0.595989D-02  0.453348D-02  0.000000D+00  0.404144D-01
     53  0.545850D+00  0.196998D-01  0.149849D-01  0.000000D+00  0.130450D+00
     54 -0.196998D-01  0.000000D+00  0.000000D+00  0.000000D+00 -0.495097D-03
     55 -0.149849D-01  0.000000D+00  0.000000D+00  0.000000D+00  0.000000D+00
     56  0.000000D+00  0.000000D+00  0.000000D+00  0.000000D+00  0.000000D+00
     57  0.130442D+00  0.494768D-03  0.000000D+00  0.000000D+00  0.140051D-04
     58  0.362670D+00  0.337519D-01  0.000000D+00  0.000000D+00  0.810815D-02
     59  0.681466D+00  0.302758D-01  0.000000D+00  0.000000D+00  0.855545D-01
     60 -0.302758D-01 -0.182708D-03  0.000000D+00  0.000000D+00 -0.337428D-05
     61  0.000000D+00  0.000000D+00  0.814331D-05  0.000000D+00  0.256680D-05
     62  0.000000D+00  0.000000D+00  0.000000D+00  0.814331D-05  0.000000D+00
               46            47            48            49            50 
     46  0.100000D+01
     47  0.678946D+00  0.100000D+01
     48  0.000000D+00  0.000000D+00  0.100000D+01
     49  0.000000D+00  0.000000D+00  0.000000D+00  0.100000D+01
     50  0.000000D+00  0.000000D+00  0.000000D+00  0.000000D+00  0.100000D+01
     51  0.404144D-01  0.130450D+00  0.495097D-03  0.000000D+00  0.000000D+00
     52  0.179433D+00  0.362689D+00  0.337588D-01  0.000000D+00  0.000000D+00
     53  0.362689D+00  0.681488D+00  0.302764D-01  0.000000D+00  0.000000D+00
     54 -0.337588D-01 -0.302764D-01 -0.182868D-03  0.000000D+00  0.000000D+00
     55  0.000000D+00  0.000000D+00  0.000000D+00  0.815113D-05  0.000000D+00
     56  0.000000D+00  0.000000D+00  0.000000D+00  0.000000D+00  0.815113D-05
     57  0.810815D-02  0.855545D-01  0.337428D-05 -0.256680D-05  0.000000D+00
     58  0.663998D-01  0.252327D+00  0.596110D-02 -0.453459D-02  0.000000D+00
     59  0.252327D+00  0.545867D+00  0.197002D-01 -0.149859D-01  0.000000D+00
     60 -0.596110D-02 -0.197002D-01  0.000000D+00  0.000000D+00  0.000000D+00
     61  0.453459D-02  0.149859D-01  0.000000D+00  0.000000D+00  0.000000D+00
     62  0.000000D+00  0.000000D+00  0.000000D+00  0.000000D+00  0.000000D+00
               51            52            53            54            55 
     51  0.100000D+01
     52  0.658292D+00  0.100000D+01
     53  0.270437D+00  0.678946D+00  0.100000D+01
     54  0.000000D+00  0.000000D+00  0.000000D+00  0.100000D+01
     55  0.000000D+00  0.000000D+00  0.000000D+00  0.000000D+00  0.100000D+01
     56  0.000000D+00  0.000000D+00  0.000000D+00  0.000000D+00  0.000000D+00
     57  0.132310D-01  0.130627D+00  0.177355D+00  0.000000D+00 -0.142949D-01
     58  0.130627D+00  0.370053D+00  0.472352D+00  0.000000D+00 -0.907671D-01
     59  0.177355D+00  0.472352D+00  0.800994D+00  0.000000D+00 -0.314927D-01
     60  0.000000D+00  0.000000D+00  0.000000D+00  0.113588D-02  0.000000D+00
     61  0.142949D-01  0.907671D-01  0.314927D-01  0.000000D+00 -0.142675D-01
     62  0.000000D+00  0.000000D+00  0.000000D+00  0.000000D+00  0.000000D+00
               56            57            58            59            60 
     56  0.100000D+01
     57  0.000000D+00  0.100000D+01
     58  0.000000D+00  0.658292D+00  0.100000D+01
     59  0.000000D+00  0.270437D+00  0.678946D+00  0.100000D+01
     60  0.000000D+00  0.000000D+00  0.000000D+00  0.000000D+00  0.100000D+01
     61  0.000000D+00  0.000000D+00  0.000000D+00  0.000000D+00  0.000000D+00
     62  0.113588D-02  0.000000D+00  0.000000D+00  0.000000D+00  0.000000D+00
               61            62 
     61  0.100000D+01
     62  0.000000D+00  0.100000D+01
 *** Kinetic Energy *** 
                1             2             3             4             5 
      1  0.162076D+02
      2 -0.124757D+01  0.932246D+00
      3  0.000000D+00  0.000000D+00  0.217833D+01
      4  0.000000D+00  0.000000D+00  0.000000D+00  0.217833D+01
      5  0.000000D+00  0.000000D+00  0.000000D+00  0.000000D+00  0.217833D+01
      6  0.899505D-01  0.306718D+00  0.000000D+00  0.000000D+00  0.000000D+00
      7  0.000000D+00  0.000000D+00  0.376673D+00  0.000000D+00  0.000000D+00
      8  0.000000D+00  0.000000D+00  0.000000D+00  0.376673D+00  0.000000D+00
      9  0.000000D+00  0.000000D+00  0.000000D+00  0.000000D+00  0.376673D+00
     10  0.907972D-02  0.486595D-01  0.000000D+00  0.000000D+00  0.000000D+00
     11  0.000000D+00  0.000000D+00  0.335613D-01  0.000000D+00  0.000000D+00
     12  0.000000D+00  0.000000D+00  0.000000D+00  0.335613D-01  0.000000D+00
     13  0.000000D+00  0.000000D+00  0.000000D+00  0.000000D+00  0.335613D-01
     14 -0.524817D+00  0.520042D+00  0.000000D+00  0.000000D+00  0.000000D+00
     15 -0.524817D+00  0.520042D+00  0.000000D+00  0.000000D+00  0.000000D+00
     16 -0.524817D+00  0.520042D+00  0.000000D+00  0.000000D+00  0.000000D+00
     17  0.000000D+00  0.000000D+00  0.000000D+00  0.000000D+00  0.000000D+00
     18  0.000000D+00  0.000000D+00  0.000000D+00  0.000000D+00  0.000000D+00
     19  0.000000D+00  0.000000D+00  0.000000D+00  0.000000D+00  0.000000D+00
     20 -0.157545D-03 -0.311300D-01 -0.295200D-01  0.000000D+00  0.000000D+00
     21 -0.311300D-01 -0.396588D-02  0.121339D+00  0.000000D+00  0.000000D+00
     22  0.295200D-01 -0.121339D+00 -0.353621D+00  0.000000D+00  0.000000D+00
     23  0.000000D+00  0.000000D+00  0.000000D+00  0.357406D-01  0.000000D+00
     24  0.000000D+00  0.000000D+00  0.000000D+00  0.000000D+00  0.357406D-01
     25  0.991305D-02  0.644513D-01  0.111446D+00  0.000000D+00  0.000000D+00
     26 -0.623557D-01 -0.242468D+00 -0.182099D+00  0.000000D+00  0.000000D+00
     27  0.000000D+00  0.000000D+00  0.000000D+00  0.107598D+00  0.000000D+00
     28  0.000000D+00  0.000000D+00  0.000000D+00  0.000000D+00  0.107598D+00
     29  0.562377D-02  0.312159D-01  0.122498D-01  0.000000D+00  0.000000D+00
     30 -0.106810D-01 -0.547346D-01  0.580695D-02  0.000000D+00  0.000000D+00
     31  0.000000D+00  0.000000D+00  0.000000D+00  0.232118D-01  0.000000D+00
     32  0.000000D+00  0.000000D+00  0.000000D+00  0.000000D+00  0.232118D-01
     33 -0.752257D-01  0.194326D+00  0.500161D+00  0.000000D+00  0.000000D+00
     34 -0.127824D-01 -0.704548D-01 -0.438665D-01  0.000000D+00  0.000000D+00
     35 -0.127824D-01 -0.704548D-01 -0.438665D-01  0.000000D+00  0.000000D+00
     36  0.000000D+00  0.000000D+00  0.000000D+00 -0.151537D+00  0.000000D+00
     37  0.000000D+00  0.000000D+00  0.000000D+00  0.000000D+00 -0.151537D+00
     38  0.000000D+00  0.000000D+00  0.000000D+00  0.000000D+00  0.000000D+00
     39 -0.349027D-01  0.462099D-01 -0.126035D+00 -0.211309D+00  0.000000D+00
     40  0.246307D-01  0.116249D+00 -0.681689D-01 -0.114292D+00  0.000000D+00
     41  0.501838D-02  0.281718D-01 -0.366691D-02 -0.614791D-02  0.000000D+00
     42 -0.529604D-01  0.131014D+00 -0.905110D-01 -0.301707D+00  0.000000D+00
     43 -0.887931D-01  0.219656D+00 -0.301707D+00 -0.416398D+00  0.000000D+00
     44  0.000000D+00  0.000000D+00  0.000000D+00  0.000000D+00  0.894412D-01
     45 -0.349029D-01  0.462355D-01 -0.126045D+00  0.211364D+00  0.000000D+00
     46  0.246340D-01  0.116260D+00 -0.681618D-01  0.114300D+00  0.000000D+00
     47  0.501850D-02  0.281725D-01 -0.366632D-02  0.614803D-02  0.000000D+00
     48 -0.529548D-01  0.131023D+00 -0.904635D-01  0.301736D+00  0.000000D+00
     49  0.887996D-01 -0.219711D+00  0.301736D+00 -0.416506D+00  0.000000D+00
     50  0.000000D+00  0.000000D+00  0.000000D+00  0.000000D+00  0.894737D-01
     51 -0.422970D-03 -0.166832D-01 -0.236215D-01 -0.116200D-01  0.000000D+00
     52 -0.455924D-02 -0.123250D-01  0.131703D-01  0.647882D-02  0.000000D+00
     53  0.229239D-02  0.135629D-01  0.701126D-02  0.344901D-02  0.000000D+00
     54  0.766396D-04  0.192133D-01  0.268369D-01  0.155850D-01  0.000000D+00
     55  0.377009D-04  0.945152D-02  0.155850D-01  0.282182D-02  0.000000D+00
     56  0.000000D+00  0.000000D+00  0.000000D+00  0.000000D+00 -0.484485D-02
     57 -0.422970D-03 -0.166832D-01 -0.236215D-01  0.116200D-01  0.000000D+00
     58 -0.455924D-02 -0.123250D-01  0.131703D-01 -0.647882D-02  0.000000D+00
     59  0.229239D-02  0.135629D-01  0.701126D-02 -0.344901D-02  0.000000D+00
     60  0.766396D-04  0.192133D-01  0.268369D-01 -0.155850D-01  0.000000D+00
     61 -0.377009D-04 -0.945152D-02 -0.155850D-01  0.282182D-02  0.000000D+00
     62  0.000000D+00  0.000000D+00  0.000000D+00  0.000000D+00 -0.484485D-02
                6             7             8             9            10 
      6  0.253072D+00
      7  0.000000D+00  0.421786D+00
      8  0.000000D+00  0.000000D+00  0.421786D+00
      9  0.000000D+00  0.000000D+00  0.000000D+00  0.421786D+00
     10  0.759086D-01  0.000000D+00  0.000000D+00  0.000000D+00  0.657000D-01
     11  0.000000D+00  0.102352D+00  0.000000D+00  0.000000D+00  0.000000D+00
     12  0.000000D+00  0.000000D+00  0.102352D+00  0.000000D+00  0.000000D+00
     13  0.000000D+00  0.000000D+00  0.000000D+00  0.102352D+00  0.000000D+00
     14  0.226288D+00  0.000000D+00  0.000000D+00  0.000000D+00  0.388353D-01
     15  0.226288D+00  0.000000D+00  0.000000D+00  0.000000D+00  0.388353D-01
     16  0.226288D+00  0.000000D+00  0.000000D+00  0.000000D+00  0.388353D-01
     17  0.000000D+00  0.000000D+00  0.000000D+00  0.000000D+00  0.000000D+00
     18  0.000000D+00  0.000000D+00  0.000000D+00  0.000000D+00  0.000000D+00
     19  0.000000D+00  0.000000D+00  0.000000D+00  0.000000D+00  0.000000D+00
     20  0.991305D-02  0.623557D-01  0.000000D+00  0.000000D+00  0.562377D-02
     21  0.644513D-01  0.242468D+00  0.000000D+00  0.000000D+00  0.312159D-01
     22 -0.111446D+00 -0.182099D+00  0.000000D+00  0.000000D+00 -0.122498D-01
     23  0.000000D+00  0.000000D+00  0.107598D+00  0.000000D+00  0.000000D+00
     24  0.000000D+00  0.000000D+00  0.000000D+00  0.107598D+00  0.000000D+00
     25  0.950802D-01  0.200682D+00  0.000000D+00  0.000000D+00  0.518808D-01
     26 -0.200682D+00 -0.119963D+00  0.000000D+00  0.000000D+00 -0.394706D-01
     27  0.000000D+00  0.000000D+00  0.193752D+00  0.000000D+00  0.000000D+00
     28  0.000000D+00  0.000000D+00  0.000000D+00  0.193752D+00  0.000000D+00
     29  0.518808D-01  0.394706D-01  0.000000D+00  0.000000D+00  0.518528D-01
     30 -0.774662D-01  0.272039D-01  0.000000D+00  0.000000D+00 -0.474752D-01
     31  0.000000D+00  0.000000D+00  0.747914D-01  0.000000D+00  0.000000D+00
     32  0.000000D+00  0.000000D+00  0.000000D+00  0.747914D-01  0.000000D+00
     33  0.998792D-01  0.204438D+00  0.000000D+00  0.000000D+00  0.263047D-01
     34  0.291784D-01  0.173736D+00  0.000000D+00  0.000000D+00  0.243740D-01
     35  0.291784D-01  0.173736D+00  0.000000D+00  0.000000D+00  0.243740D-01
     36  0.000000D+00  0.000000D+00 -0.118229D+00  0.000000D+00  0.000000D+00
     37  0.000000D+00  0.000000D+00  0.000000D+00 -0.118229D+00  0.000000D+00
     38  0.000000D+00  0.000000D+00  0.000000D+00  0.000000D+00  0.000000D+00
     39  0.962513D-01 -0.139088D+00 -0.233194D+00  0.000000D+00  0.283997D-01
     40  0.134963D+00 -0.105843D+00 -0.177456D+00  0.000000D+00  0.600331D-01
     41  0.479224D-01 -0.125173D-01 -0.209864D-01  0.000000D+00  0.512064D-01
     42  0.490185D-01  0.580584D-01 -0.937436D-01  0.000000D+00  0.328361D-02
     43  0.821840D-01 -0.937436D-01 -0.431982D-01  0.000000D+00  0.550527D-02
     44  0.000000D+00  0.000000D+00  0.000000D+00  0.113972D+00  0.000000D+00
     45  0.962621D-01 -0.139075D+00  0.233213D+00  0.000000D+00  0.284005D-01
     46  0.134972D+00 -0.105829D+00  0.177465D+00  0.000000D+00  0.600345D-01
     47  0.479233D-01 -0.125152D-01  0.209867D-01  0.000000D+00  0.512071D-01
     48  0.490140D-01  0.580844D-01  0.937340D-01  0.000000D+00  0.328309D-02
     49 -0.821913D-01  0.937340D-01 -0.432004D-01  0.000000D+00 -0.550540D-02
     50  0.000000D+00  0.000000D+00  0.000000D+00  0.113982D+00  0.000000D+00
     51 -0.137832D-01  0.172127D-01  0.846737D-02  0.000000D+00  0.112303D-01
     52  0.875517D-02  0.766414D-01  0.377018D-01  0.000000D+00  0.283176D-01
     53  0.254134D-01  0.258139D-01  0.126985D-01  0.000000D+00  0.340840D-01
     54 -0.300043D-02 -0.465453D-01 -0.239037D-01  0.000000D+00 -0.540809D-02
     55 -0.147598D-02 -0.239037D-01 -0.971194D-02  0.000000D+00 -0.266037D-02
     56  0.000000D+00  0.000000D+00  0.000000D+00  0.204687D-02  0.000000D+00
     57 -0.137832D-01  0.172127D-01 -0.846737D-02  0.000000D+00  0.112303D-01
     58  0.875517D-02  0.766414D-01 -0.377018D-01  0.000000D+00  0.283176D-01
     59  0.254134D-01  0.258139D-01 -0.126985D-01  0.000000D+00  0.340840D-01
     60 -0.300043D-02 -0.465453D-01  0.239037D-01  0.000000D+00 -0.540809D-02
     61  0.147598D-02  0.239037D-01 -0.971194D-02  0.000000D+00  0.266037D-02
     62  0.000000D+00  0.000000D+00  0.000000D+00  0.204687D-02  0.000000D+00
               11            12            13            14            15 
     11  0.109500D+00
     12  0.000000D+00  0.109500D+00
     13  0.000000D+00  0.000000D+00  0.109500D+00
     14  0.000000D+00  0.000000D+00  0.000000D+00  0.173333D+01
     15  0.000000D+00  0.000000D+00  0.000000D+00 -0.133333D+00  0.173333D+01
     16  0.000000D+00  0.000000D+00  0.000000D+00 -0.133333D+00 -0.133333D+00
     17  0.000000D+00  0.000000D+00  0.000000D+00  0.000000D+00  0.000000D+00
     18  0.000000D+00  0.000000D+00  0.000000D+00  0.000000D+00  0.000000D+00
     19  0.000000D+00  0.000000D+00  0.000000D+00  0.000000D+00  0.000000D+00
     20  0.106810D-01  0.000000D+00  0.000000D+00 -0.752257D-01 -0.127824D-01
     21  0.547346D-01  0.000000D+00  0.000000D+00  0.194326D+00 -0.704548D-01
     22  0.580695D-02  0.000000D+00  0.000000D+00 -0.500161D+00  0.438665D-01
     23  0.000000D+00  0.232118D-01  0.000000D+00  0.000000D+00  0.000000D+00
     24  0.000000D+00  0.000000D+00  0.232118D-01  0.000000D+00  0.000000D+00
     25  0.774662D-01  0.000000D+00  0.000000D+00  0.998792D-01  0.291784D-01
     26  0.272039D-01  0.000000D+00  0.000000D+00 -0.204438D+00 -0.173736D+00
     27  0.000000D+00  0.747914D-01  0.000000D+00  0.000000D+00  0.000000D+00
     28  0.000000D+00  0.000000D+00  0.747914D-01  0.000000D+00  0.000000D+00
     29  0.474752D-01  0.000000D+00  0.000000D+00  0.263047D-01  0.243740D-01
     30  0.542913D-01  0.000000D+00  0.000000D+00 -0.402527D-01 -0.450404D-01
     31  0.000000D+00  0.899591D-01  0.000000D+00  0.000000D+00  0.000000D+00
     32  0.000000D+00  0.000000D+00  0.899591D-01  0.000000D+00  0.000000D+00
     33  0.402527D-01  0.000000D+00  0.000000D+00  0.736097D+00 -0.684212D-01
     34  0.450404D-01  0.000000D+00  0.000000D+00 -0.684212D-01 -0.236921D-01
     35  0.450404D-01  0.000000D+00  0.000000D+00 -0.684212D-01 -0.637848D-01
     36  0.000000D+00 -0.633656D-02  0.000000D+00  0.000000D+00  0.000000D+00
     37  0.000000D+00  0.000000D+00 -0.633656D-02  0.000000D+00  0.000000D+00
     38  0.000000D+00  0.000000D+00  0.000000D+00  0.000000D+00  0.000000D+00
     39 -0.205301D-01 -0.344207D-01  0.000000D+00  0.375362D-01  0.260062D+00
     40 -0.359506D-01 -0.602745D-01  0.000000D+00  0.867456D-01  0.116786D+00
     41 -0.172675D-01 -0.289506D-01  0.000000D+00  0.225538D-01  0.229061D-01
     42  0.130044D-01 -0.331895D-02  0.000000D+00 -0.903836D-01  0.546283D+00
     43 -0.331895D-02  0.941945D-02  0.000000D+00  0.274185D+00  0.490173D+00
     44  0.000000D+00  0.000000D+00  0.149840D-01  0.000000D+00  0.000000D+00
     45 -0.205269D-01  0.344215D-01  0.000000D+00  0.375223D-01  0.260150D+00
     46 -0.359448D-01  0.602757D-01  0.000000D+00  0.867496D-01  0.116798D+00
     47 -0.172646D-01  0.289509D-01  0.000000D+00  0.225542D-01  0.229067D-01
     48  0.130054D-01  0.331842D-02  0.000000D+00 -0.904639D-01  0.546338D+00
     49  0.331842D-02  0.941969D-02  0.000000D+00 -0.274151D+00 -0.490303D+00
     50  0.000000D+00  0.000000D+00  0.149843D-01  0.000000D+00  0.000000D+00
     51  0.343834D-01  0.169141D-01  0.000000D+00 -0.280612D-01 -0.117701D-01
     52  0.680934D-01  0.334968D-01  0.000000D+00  0.247969D-02 -0.118664D-01
     53  0.423114D-01  0.208140D-01  0.000000D+00  0.117263D-01  0.107162D-01
     54 -0.476502D-02 -0.590600D-02  0.000000D+00  0.380625D-01  0.158533D-01
     55 -0.590600D-02  0.433557D-02  0.000000D+00  0.234684D-01  0.305415D-02
     56  0.000000D+00  0.000000D+00  0.724088D-02  0.000000D+00  0.000000D+00
     57  0.343834D-01 -0.169141D-01  0.000000D+00 -0.280612D-01 -0.117701D-01
     58  0.680934D-01 -0.334968D-01  0.000000D+00  0.247969D-02 -0.118664D-01
     59  0.423114D-01 -0.208140D-01  0.000000D+00  0.117263D-01  0.107162D-01
     60 -0.476502D-02  0.590600D-02  0.000000D+00  0.380625D-01  0.158533D-01
     61  0.590600D-02  0.433557D-02  0.000000D+00 -0.234684D-01 -0.305415D-02
     62  0.000000D+00  0.000000D+00  0.724088D-02  0.000000D+00  0.000000D+00
               16            17            18            19            20 
     16  0.173333D+01
     17  0.000000D+00  0.280000D+01
     18  0.000000D+00  0.000000D+00  0.280000D+01
     19  0.000000D+00  0.000000D+00  0.000000D+00  0.280000D+01
     20 -0.127824D-01  0.000000D+00  0.000000D+00  0.000000D+00  0.162076D+02
     21 -0.704548D-01  0.000000D+00  0.000000D+00  0.000000D+00 -0.124757D+01
     22  0.438665D-01  0.000000D+00  0.000000D+00  0.000000D+00  0.000000D+00
     23  0.000000D+00  0.151537D+00  0.000000D+00  0.000000D+00  0.000000D+00
     24  0.000000D+00  0.000000D+00  0.151537D+00  0.000000D+00  0.000000D+00
     25  0.291784D-01  0.000000D+00  0.000000D+00  0.000000D+00  0.899505D-01
     26 -0.173736D+00  0.000000D+00  0.000000D+00  0.000000D+00  0.000000D+00
     27  0.000000D+00  0.118229D+00  0.000000D+00  0.000000D+00  0.000000D+00
     28  0.000000D+00  0.000000D+00  0.118229D+00  0.000000D+00  0.000000D+00
     29  0.243740D-01  0.000000D+00  0.000000D+00  0.000000D+00  0.907972D-02
     30 -0.450404D-01  0.000000D+00  0.000000D+00  0.000000D+00  0.000000D+00
     31  0.000000D+00  0.633656D-02  0.000000D+00  0.000000D+00  0.000000D+00
     32  0.000000D+00  0.000000D+00  0.633656D-02  0.000000D+00  0.000000D+00
     33 -0.684212D-01  0.000000D+00  0.000000D+00  0.000000D+00 -0.524817D+00
     34 -0.637848D-01  0.000000D+00  0.000000D+00  0.000000D+00 -0.524817D+00
     35 -0.236921D-01  0.000000D+00  0.000000D+00  0.000000D+00 -0.524817D+00
     36  0.000000D+00 -0.565623D+00  0.000000D+00  0.000000D+00  0.000000D+00
     37  0.000000D+00  0.000000D+00 -0.565623D+00  0.000000D+00  0.000000D+00
     38  0.000000D+00  0.000000D+00  0.000000D+00  0.601391D-01  0.000000D+00
     39 -0.853409D-01  0.356828D+00  0.000000D+00  0.000000D+00 -0.422970D-03
     40  0.701576D-01  0.481707D-01  0.000000D+00  0.000000D+00 -0.455924D-02
     41  0.223592D-01  0.565009D-03  0.000000D+00  0.000000D+00  0.229239D-02
     42 -0.478126D-01  0.245062D+00  0.000000D+00  0.000000D+00 -0.766396D-04
     43 -0.801622D-01  0.809103D+00  0.000000D+00  0.000000D+00 -0.377009D-04
     44  0.000000D+00  0.000000D+00 -0.219902D+00 -0.368686D+00  0.000000D+00
     45 -0.853423D-01 -0.356856D+00  0.000000D+00  0.000000D+00 -0.423242D-03
     46  0.701664D-01 -0.481654D-01  0.000000D+00  0.000000D+00 -0.455921D-02
     47  0.223597D-01 -0.564917D-03  0.000000D+00  0.000000D+00  0.229262D-02
     48 -0.478019D-01 -0.244886D+00  0.000000D+00  0.000000D+00 -0.767136D-04
     49  0.801588D-01  0.809153D+00  0.000000D+00  0.000000D+00  0.377393D-04
     50  0.000000D+00  0.000000D+00 -0.219928D+00  0.368796D+00  0.000000D+00
     51 -0.656933D-02 -0.183119D-01  0.000000D+00  0.000000D+00 -0.349027D-01
     52 -0.164463D-01  0.161257D-01  0.000000D+00  0.000000D+00  0.246307D-01
     53  0.103937D-01  0.113548D-02  0.000000D+00  0.000000D+00  0.501838D-02
     54  0.568417D-02  0.316964D-01  0.000000D+00  0.000000D+00  0.529604D-01
     55  0.279618D-02  0.926089D-02  0.000000D+00  0.000000D+00  0.887931D-01
     56  0.000000D+00  0.000000D+00 -0.835261D-02 -0.410886D-02  0.000000D+00
     57 -0.656933D-02  0.183119D-01  0.000000D+00  0.000000D+00 -0.349027D-01
     58 -0.164463D-01 -0.161257D-01  0.000000D+00  0.000000D+00  0.246307D-01
     59  0.103937D-01 -0.113548D-02  0.000000D+00  0.000000D+00  0.501838D-02
     60  0.568417D-02 -0.316964D-01  0.000000D+00  0.000000D+00  0.529604D-01
     61 -0.279618D-02  0.926089D-02  0.000000D+00  0.000000D+00 -0.887931D-01
     62  0.000000D+00  0.000000D+00 -0.835261D-02  0.410886D-02  0.000000D+00
               21            22            23            24            25 
     21  0.932246D+00
     22  0.000000D+00  0.217833D+01
     23  0.000000D+00  0.000000D+00  0.217833D+01
     24  0.000000D+00  0.000000D+00  0.000000D+00  0.217833D+01
     25  0.306718D+00  0.000000D+00  0.000000D+00  0.000000D+00  0.253072D+00
     26  0.000000D+00  0.376673D+00  0.000000D+00  0.000000D+00  0.000000D+00
     27  0.000000D+00  0.000000D+00  0.376673D+00  0.000000D+00  0.000000D+00
     28  0.000000D+00  0.000000D+00  0.000000D+00  0.376673D+00  0.000000D+00
     29  0.486595D-01  0.000000D+00  0.000000D+00  0.000000D+00  0.759086D-01
     30  0.000000D+00  0.335613D-01  0.000000D+00  0.000000D+00  0.000000D+00
     31  0.000000D+00  0.000000D+00  0.335613D-01  0.000000D+00  0.000000D+00
     32  0.000000D+00  0.000000D+00  0.000000D+00  0.335613D-01  0.000000D+00
     33  0.520042D+00  0.000000D+00  0.000000D+00  0.000000D+00  0.226288D+00
     34  0.520042D+00  0.000000D+00  0.000000D+00  0.000000D+00  0.226288D+00
     35  0.520042D+00  0.000000D+00  0.000000D+00  0.000000D+00  0.226288D+00
     36  0.000000D+00  0.000000D+00  0.000000D+00  0.000000D+00  0.000000D+00
     37  0.000000D+00  0.000000D+00  0.000000D+00  0.000000D+00  0.000000D+00
     38  0.000000D+00  0.000000D+00  0.000000D+00  0.000000D+00  0.000000D+00
     39 -0.166832D-01  0.236215D-01  0.116200D-01  0.000000D+00 -0.137832D-01
     40 -0.123250D-01 -0.131703D-01 -0.647882D-02  0.000000D+00  0.875517D-02
     41  0.135629D-01 -0.701126D-02 -0.344901D-02  0.000000D+00  0.254134D-01
     42 -0.192133D-01  0.268369D-01  0.155850D-01  0.000000D+00  0.300043D-02
     43 -0.945152D-02  0.155850D-01  0.282182D-02  0.000000D+00  0.147598D-02
     44  0.000000D+00  0.000000D+00  0.000000D+00 -0.484485D-02  0.000000D+00
     45 -0.166878D-01  0.236261D-01 -0.116229D-01  0.000000D+00 -0.137819D-01
     46 -0.123224D-01 -0.131765D-01  0.648217D-02  0.000000D+00  0.876112D-02
     47  0.135642D-01 -0.701137D-02  0.344925D-02  0.000000D+00  0.254154D-01
     48 -0.192188D-01  0.268410D-01 -0.155887D-01  0.000000D+00  0.300404D-02
     49  0.945470D-02 -0.155887D-01  0.282235D-02  0.000000D+00 -0.147784D-02
     50  0.000000D+00  0.000000D+00  0.000000D+00 -0.484653D-02  0.000000D+00
     51  0.462099D-01  0.126035D+00  0.211309D+00  0.000000D+00  0.962513D-01
     52  0.116249D+00  0.681689D-01  0.114292D+00  0.000000D+00  0.134963D+00
     53  0.281718D-01  0.366691D-02  0.614791D-02  0.000000D+00  0.479224D-01
     54 -0.131014D+00 -0.905110D-01 -0.301707D+00  0.000000D+00 -0.490185D-01
     55 -0.219656D+00 -0.301707D+00 -0.416398D+00  0.000000D+00 -0.821840D-01
     56  0.000000D+00  0.000000D+00  0.000000D+00  0.894412D-01  0.000000D+00
     57  0.462099D-01  0.126035D+00 -0.211309D+00  0.000000D+00  0.962513D-01
     58  0.116249D+00  0.681689D-01 -0.114292D+00  0.000000D+00  0.134963D+00
     59  0.281718D-01  0.366691D-02 -0.614791D-02  0.000000D+00  0.479224D-01
     60 -0.131014D+00 -0.905110D-01  0.301707D+00  0.000000D+00 -0.490185D-01
     61  0.219656D+00  0.301707D+00 -0.416398D+00  0.000000D+00  0.821840D-01
     62  0.000000D+00  0.000000D+00  0.000000D+00  0.894412D-01  0.000000D+00
               26            27            28            29            30 
     26  0.421786D+00
     27  0.000000D+00  0.421786D+00
     28  0.000000D+00  0.000000D+00  0.421786D+00
     29  0.000000D+00  0.000000D+00  0.000000D+00  0.657000D-01
     30  0.102352D+00  0.000000D+00  0.000000D+00  0.000000D+00  0.109500D+00
     31  0.000000D+00  0.102352D+00  0.000000D+00  0.000000D+00  0.000000D+00
     32  0.000000D+00  0.000000D+00  0.102352D+00  0.000000D+00  0.000000D+00
     33  0.000000D+00  0.000000D+00  0.000000D+00  0.388353D-01  0.000000D+00
     34  0.000000D+00  0.000000D+00  0.000000D+00  0.388353D-01  0.000000D+00
     35  0.000000D+00  0.000000D+00  0.000000D+00  0.388353D-01  0.000000D+00
     36  0.000000D+00  0.000000D+00  0.000000D+00  0.000000D+00  0.000000D+00
     37  0.000000D+00  0.000000D+00  0.000000D+00  0.000000D+00  0.000000D+00
     38  0.000000D+00  0.000000D+00  0.000000D+00  0.000000D+00  0.000000D+00
     39 -0.172127D-01 -0.846737D-02  0.000000D+00  0.112303D-01 -0.343834D-01
     40 -0.766414D-01 -0.377018D-01  0.000000D+00  0.283176D-01 -0.680934D-01
     41 -0.258139D-01 -0.126985D-01  0.000000D+00  0.340840D-01 -0.423114D-01
     42 -0.465453D-01 -0.239037D-01  0.000000D+00  0.540809D-02 -0.476502D-02
     43 -0.239037D-01 -0.971194D-02  0.000000D+00  0.266037D-02 -0.590600D-02
     44  0.000000D+00  0.000000D+00  0.204687D-02  0.000000D+00  0.000000D+00
     45 -0.172241D-01  0.847343D-02  0.000000D+00  0.112316D-01 -0.343845D-01
     46 -0.766530D-01  0.377095D-01  0.000000D+00  0.283203D-01 -0.680945D-01
     47 -0.258140D-01  0.126992D-01  0.000000D+00  0.340857D-01 -0.423108D-01
     48 -0.465552D-01  0.239111D-01  0.000000D+00  0.540828D-02 -0.476404D-02
     49  0.239111D-01 -0.971364D-02  0.000000D+00 -0.266061D-02  0.590614D-02
     50  0.000000D+00  0.000000D+00  0.204945D-02  0.000000D+00  0.000000D+00
     51  0.139088D+00  0.233194D+00  0.000000D+00  0.283997D-01  0.205301D-01
     52  0.105843D+00  0.177456D+00  0.000000D+00  0.600331D-01  0.359506D-01
     53  0.125173D-01  0.209864D-01  0.000000D+00  0.512064D-01  0.172675D-01
     54  0.580584D-01 -0.937436D-01  0.000000D+00 -0.328361D-02  0.130044D-01
     55 -0.937436D-01 -0.431982D-01  0.000000D+00 -0.550527D-02 -0.331895D-02
     56  0.000000D+00  0.000000D+00  0.113972D+00  0.000000D+00  0.000000D+00
     57  0.139088D+00 -0.233194D+00  0.000000D+00  0.283997D-01  0.205301D-01
     58  0.105843D+00 -0.177456D+00  0.000000D+00  0.600331D-01  0.359506D-01
     59  0.125173D-01 -0.209864D-01  0.000000D+00  0.512064D-01  0.172675D-01
     60  0.580584D-01  0.937436D-01  0.000000D+00 -0.328361D-02  0.130044D-01
     61  0.937436D-01 -0.431982D-01  0.000000D+00  0.550527D-02  0.331895D-02
     62  0.000000D+00  0.000000D+00  0.113972D+00  0.000000D+00  0.000000D+00
               31            32            33            34            35 
     31  0.109500D+00
     32  0.000000D+00  0.109500D+00
     33  0.000000D+00  0.000000D+00  0.173333D+01
     34  0.000000D+00  0.000000D+00 -0.133333D+00  0.173333D+01
     35  0.000000D+00  0.000000D+00 -0.133333D+00 -0.133333D+00  0.173333D+01
     36  0.000000D+00  0.000000D+00  0.000000D+00  0.000000D+00  0.000000D+00
     37  0.000000D+00  0.000000D+00  0.000000D+00  0.000000D+00  0.000000D+00
     38  0.000000D+00  0.000000D+00  0.000000D+00  0.000000D+00  0.000000D+00
     39 -0.169141D-01  0.000000D+00 -0.280612D-01 -0.117701D-01 -0.656933D-02
     40 -0.334968D-01  0.000000D+00  0.247969D-02 -0.118664D-01 -0.164463D-01
     41 -0.208140D-01  0.000000D+00  0.117263D-01  0.107162D-01  0.103937D-01
     42 -0.590600D-02  0.000000D+00 -0.380625D-01 -0.158533D-01 -0.568417D-02
     43  0.433557D-02  0.000000D+00 -0.234684D-01 -0.305415D-02 -0.279618D-02
     44  0.000000D+00  0.724088D-02  0.000000D+00  0.000000D+00  0.000000D+00
     45  0.169155D-01  0.000000D+00 -0.280673D-01 -0.117741D-01 -0.657185D-02
     46  0.334992D-01  0.000000D+00  0.248423D-02 -0.118643D-01 -0.164456D-01
     47  0.208148D-01  0.000000D+00  0.117273D-01  0.107172D-01  0.103947D-01
     48  0.590614D-02  0.000000D+00 -0.380715D-01 -0.158596D-01 -0.568684D-02
     49  0.433598D-02  0.000000D+00  0.234760D-01  0.305544D-02  0.279765D-02
     50  0.000000D+00  0.724151D-02  0.000000D+00  0.000000D+00  0.000000D+00
     51  0.344207D-01  0.000000D+00  0.375362D-01  0.260062D+00 -0.853409D-01
     52  0.602745D-01  0.000000D+00  0.867456D-01  0.116786D+00  0.701576D-01
     53  0.289506D-01  0.000000D+00  0.225538D-01  0.229061D-01  0.223592D-01
     54 -0.331895D-02  0.000000D+00  0.903836D-01 -0.546283D+00  0.478126D-01
     55  0.941945D-02  0.000000D+00 -0.274185D+00 -0.490173D+00  0.801622D-01
     56  0.000000D+00  0.149840D-01  0.000000D+00  0.000000D+00  0.000000D+00
     57 -0.344207D-01  0.000000D+00  0.375362D-01  0.260062D+00 -0.853409D-01
     58 -0.602745D-01  0.000000D+00  0.867456D-01  0.116786D+00  0.701576D-01
     59 -0.289506D-01  0.000000D+00  0.225538D-01  0.229061D-01  0.223592D-01
     60  0.331895D-02  0.000000D+00  0.903836D-01 -0.546283D+00  0.478126D-01
     61  0.941945D-02  0.000000D+00  0.274185D+00  0.490173D+00 -0.801622D-01
     62  0.000000D+00  0.149840D-01  0.000000D+00  0.000000D+00  0.000000D+00
               36            37            38            39            40 
     36  0.280000D+01
     37  0.000000D+00  0.280000D+01
     38  0.000000D+00  0.000000D+00  0.280000D+01
     39 -0.183119D-01  0.000000D+00  0.000000D+00  0.139568D+01
     40  0.161257D-01  0.000000D+00  0.000000D+00  0.259735D+00  0.241917D+00
     41  0.113548D-02  0.000000D+00  0.000000D+00  0.277653D-01  0.599454D-01
     42 -0.316964D-01  0.000000D+00  0.000000D+00  0.000000D+00  0.000000D+00
     43 -0.926089D-02  0.000000D+00  0.000000D+00  0.000000D+00  0.000000D+00
     44  0.000000D+00  0.835261D-02  0.410886D-02  0.000000D+00  0.000000D+00
     45  0.183160D-01  0.000000D+00  0.000000D+00 -0.222516D-01 -0.402915D-02
     46 -0.161298D-01  0.000000D+00  0.000000D+00 -0.402915D-02  0.301923D-01
     47 -0.113549D-02  0.000000D+00  0.000000D+00  0.130860D-01  0.316173D-01
     48  0.317052D-01  0.000000D+00  0.000000D+00  0.158080D-05 -0.105270D-05
     49 -0.926366D-02  0.000000D+00  0.000000D+00  0.293713D-01 -0.195592D-01
     50  0.000000D+00  0.835602D-02 -0.411075D-02  0.000000D+00  0.000000D+00
     51  0.356828D+00  0.000000D+00  0.000000D+00 -0.830810D-04 -0.608198D-02
     52  0.481707D-01  0.000000D+00  0.000000D+00 -0.608198D-02 -0.129794D-01
     53  0.565009D-03  0.000000D+00  0.000000D+00  0.204309D-02  0.757627D-02
     54 -0.245062D+00  0.000000D+00  0.000000D+00  0.303185D-04  0.374011D-02
     55 -0.809103D+00  0.000000D+00  0.000000D+00  0.230622D-04  0.284497D-02
     56  0.000000D+00  0.219902D+00  0.368686D+00  0.000000D+00  0.000000D+00
     57 -0.356828D+00  0.000000D+00  0.000000D+00 -0.250267D-02 -0.135727D-01
     58 -0.481707D-01  0.000000D+00  0.000000D+00 -0.135727D-01 -0.631044D-02
     59 -0.565009D-03  0.000000D+00  0.000000D+00  0.688120D-02  0.186351D-01
     60  0.245062D+00  0.000000D+00  0.000000D+00  0.245225D-02  0.471708D-02
     61 -0.809103D+00  0.000000D+00  0.000000D+00  0.000000D+00  0.000000D+00
     62  0.000000D+00  0.219902D+00 -0.368686D+00  0.000000D+00  0.000000D+00
               41            42            43            44            45 
     41  0.540000D-01
     42  0.000000D+00  0.275000D+01
     43  0.000000D+00  0.000000D+00  0.275000D+01
     44  0.000000D+00  0.000000D+00  0.000000D+00  0.275000D+01
     45  0.130860D-01 -0.158080D-05 -0.293713D-01  0.000000D+00  0.139568D+01
     46  0.316173D-01  0.105270D-05  0.195592D-01  0.000000D+00  0.259735D+00
     47  0.368549D-01  0.000000D+00  0.454550D-02  0.000000D+00  0.277653D-01
     48  0.000000D+00 -0.534816D-02  0.299145D-05  0.000000D+00  0.000000D+00
     49 -0.454550D-02  0.299145D-05  0.502330D-01  0.000000D+00  0.000000D+00
     50  0.000000D+00  0.000000D+00  0.000000D+00 -0.534816D-02  0.000000D+00
     51  0.204309D-02 -0.303185D-04 -0.230622D-04  0.000000D+00 -0.250382D-02
     52  0.757627D-02 -0.374011D-02 -0.284497D-02  0.000000D+00 -0.135734D-01
     53  0.175792D-01  0.182331D-02  0.138692D-02  0.000000D+00  0.688215D-02
     54 -0.182331D-02  0.341385D-05  0.272062D-05  0.000000D+00  0.245360D-02
     55 -0.138692D-02  0.272062D-05  0.190670D-05  0.000000D+00  0.000000D+00
     56  0.000000D+00  0.000000D+00  0.000000D+00  0.000000D+00  0.000000D+00
     57  0.688120D-02 -0.245225D-02  0.000000D+00  0.000000D+00 -0.831224D-04
     58  0.186351D-01 -0.471708D-02  0.000000D+00  0.000000D+00 -0.608288D-02
     59  0.273906D-01  0.370925D-02  0.000000D+00  0.000000D+00  0.204356D-02
     60 -0.370925D-02  0.164275D-02  0.000000D+00  0.000000D+00  0.303367D-04
     61  0.000000D+00  0.000000D+00 -0.825743D-04  0.000000D+00 -0.230770D-04
     62  0.000000D+00  0.000000D+00  0.000000D+00 -0.825743D-04  0.000000D+00
               46            47            48            49            50 
     46  0.241917D+00
     47  0.599454D-01  0.540000D-01
     48  0.000000D+00  0.000000D+00  0.275000D+01
     49  0.000000D+00  0.000000D+00  0.000000D+00  0.275000D+01
     50  0.000000D+00  0.000000D+00  0.000000D+00  0.000000D+00  0.275000D+01
     51 -0.135734D-01  0.688215D-02 -0.245360D-02  0.000000D+00  0.000000D+00
     52 -0.630725D-02  0.186371D-01 -0.471571D-02  0.000000D+00  0.000000D+00
     53  0.186371D-01  0.273923D-01  0.370945D-02  0.000000D+00  0.000000D+00
     54  0.471571D-02 -0.370945D-02  0.164400D-02  0.000000D+00  0.000000D+00
     55  0.000000D+00  0.000000D+00  0.000000D+00 -0.826450D-04  0.000000D+00
     56  0.000000D+00  0.000000D+00  0.000000D+00  0.000000D+00 -0.826450D-04
     57 -0.608288D-02  0.204356D-02 -0.303367D-04  0.230770D-04  0.000000D+00
     58 -0.129797D-01  0.757742D-02 -0.374046D-02  0.284535D-02  0.000000D+00
     59  0.757742D-02  0.175804D-01  0.182343D-02 -0.138707D-02  0.000000D+00
     60  0.374046D-02 -0.182343D-02  0.341661D-05 -0.272294D-05  0.000000D+00
     61 -0.284535D-02  0.138707D-02 -0.272294D-05  0.190840D-05  0.000000D+00
     62  0.000000D+00  0.000000D+00  0.000000D+00  0.000000D+00  0.000000D+00
               51            52            53            54            55 
     51  0.139568D+01
     52  0.259735D+00  0.241917D+00
     53  0.277653D-01  0.599454D-01  0.540000D-01
     54  0.000000D+00  0.000000D+00  0.000000D+00  0.275000D+01
     55  0.000000D+00  0.000000D+00  0.000000D+00  0.000000D+00  0.275000D+01
     56  0.000000D+00  0.000000D+00  0.000000D+00  0.000000D+00  0.000000D+00
     57 -0.222516D-01 -0.402915D-02  0.130860D-01  0.000000D+00  0.293713D-01
     58 -0.402915D-02  0.301923D-01  0.316173D-01  0.000000D+00 -0.195592D-01
     59  0.130860D-01  0.316173D-01  0.368549D-01  0.000000D+00 -0.454550D-02
     60  0.000000D+00  0.000000D+00  0.000000D+00 -0.534816D-02  0.000000D+00
     61 -0.293713D-01  0.195592D-01  0.454550D-02  0.000000D+00  0.502330D-01
     62  0.000000D+00  0.000000D+00  0.000000D+00  0.000000D+00  0.000000D+00
               56            57            58            59            60 
     56  0.275000D+01
     57  0.000000D+00  0.139568D+01
     58  0.000000D+00  0.259735D+00  0.241917D+00
     59  0.000000D+00  0.277653D-01  0.599454D-01  0.540000D-01
     60  0.000000D+00  0.000000D+00  0.000000D+00  0.000000D+00  0.275000D+01
     61  0.000000D+00  0.000000D+00  0.000000D+00  0.000000D+00  0.000000D+00
     62 -0.534816D-02  0.000000D+00  0.000000D+00  0.000000D+00  0.000000D+00
               61            62 
     61  0.275000D+01
     62  0.000000D+00  0.275000D+01
 Entering OneElI...
 Calculate potential energy integrals
    NBasis =  62  MinDer = 0  MaxDer = 0
 Requested accuracy = 0.1000D-12
 PrsmSu:  NPrtUS=   4 ThrOK=T IAlg=1
 PRISM was handed    33538402 working-precision words and   351 shell-pairs
 PRISM was handed    33538402 working-precision words and   351 shell-pairs
 PRISM was handed    33538402 working-precision words and   351 shell-pairs
 PRISM was handed    33538402 working-precision words and   351 shell-pairs
 IPart=  3 NShTot=         498 NBatch=          83 AvBLen=         6.0
 IPart=  0 NShTot=         552 NBatch=          92 AvBLen=         6.0
 IPart=  1 NShTot=         546 NBatch=          91 AvBLen=         6.0
 IPart=  2 NShTot=         510 NBatch=          85 AvBLen=         6.0
 ***** Potential Energy ***** 
                1             2             3             4             5 
      1  0.380135D+02
      2  0.325859D+01  0.957827D+01
      3  0.769896D-01  0.558720D+00  0.103430D+02
      4  0.276926D-05  0.182374D-04 -0.133598D-05  0.100577D+02
      5  0.000000D+00  0.000000D+00  0.000000D+00  0.000000D+00  0.989338D+01
      6  0.396426D+01  0.725344D+01  0.563718D+00  0.147723D-04  0.000000D+00
      7  0.129338D-01  0.408265D+00  0.479909D+01  0.000000D+00  0.000000D+00
      8  0.000000D+00  0.998824D-05  0.000000D+00  0.449528D+01  0.000000D+00
      9  0.000000D+00  0.000000D+00  0.000000D+00  0.000000D+00  0.435521D+01
     10  0.147814D+01  0.341753D+01  0.315447D+00  0.705688D-05  0.000000D+00
     11  0.260665D-02  0.121528D+00  0.131660D+01  0.000000D+00  0.000000D+00
     12  0.000000D+00  0.250563D-05  0.000000D+00  0.121470D+01  0.000000D+00
     13  0.000000D+00  0.000000D+00  0.000000D+00  0.000000D+00  0.117262D+01
     14  0.113591D+01  0.650961D+01  0.919303D+00  0.422638D-05  0.000000D+00
     15  0.112869D+01  0.627369D+01  0.168796D+00  0.321299D-04  0.000000D+00
     16  0.112411D+01  0.613302D+01  0.229864D+00  0.564306D-05  0.000000D+00
     17  0.000000D+00 -0.246741D-05  0.732031D-05  0.292363D+00  0.000000D+00
     18  0.000000D+00  0.000000D+00  0.000000D+00  0.000000D+00  0.398135D+00
     19  0.000000D+00  0.000000D+00  0.000000D+00  0.000000D+00  0.977406D-05
     20  0.624032D-04  0.408744D+00  0.920308D+00  0.000000D+00  0.000000D+00
     21  0.408744D+00  0.205915D+01  0.289157D+01  0.136203D-05  0.000000D+00
     22 -0.920308D+00 -0.289157D+01 -0.346973D+01 -0.237489D-05  0.000000D+00
     23  0.000000D+00  0.116347D-05  0.111509D-05  0.105701D+01  0.000000D+00
     24  0.000000D+00  0.000000D+00  0.000000D+00  0.000000D+00  0.104770D+01
     25  0.139357D+01  0.336563D+01  0.251086D+01  0.553284D-05  0.000000D+00
     26 -0.281713D+01 -0.516547D+01 -0.177741D+01 -0.105601D-04  0.000000D+00
     27  0.000000D+00  0.382603D-05  0.000000D+00  0.195662D+01  0.000000D+00
     28  0.000000D+00  0.000000D+00  0.000000D+00  0.000000D+00  0.191793D+01
     29  0.112173D+01  0.268838D+01  0.790991D+00  0.551679D-05  0.000000D+00
     30 -0.117488D+01 -0.254004D+01  0.280958D+00 -0.549605D-05  0.000000D+00
     31  0.000000D+00  0.197791D-05  0.000000D+00  0.944475D+00  0.000000D+00
     32  0.000000D+00  0.000000D+00  0.000000D+00  0.000000D+00  0.915589D+00
     33  0.111405D+01  0.344979D+01  0.429742D+01  0.242449D-05  0.000000D+00
     34  0.153524D-01  0.848561D+00  0.130918D+01  0.000000D+00  0.000000D+00
     35  0.153102D-01  0.841700D+00  0.129786D+01  0.000000D+00  0.000000D+00
     36  0.000000D+00 -0.198013D-05 -0.196554D-05 -0.169967D+01  0.000000D+00
     37  0.000000D+00  0.000000D+00  0.000000D+00  0.000000D+00 -0.168884D+01
     38  0.000000D+00  0.000000D+00  0.000000D+00  0.000000D+00  0.000000D+00
     39  0.679219D+00  0.225574D+01 -0.143946D+01 -0.251112D+01  0.000000D+00
     40  0.198173D+01  0.407490D+01 -0.779337D+00 -0.173990D+01  0.000000D+00
     41  0.109997D+01  0.258842D+01  0.617135D-01 -0.280866D+00  0.000000D+00
     42  0.466705D+00  0.138053D+01 -0.106279D-01 -0.198402D+01  0.000000D+00
     43  0.779552D+00  0.222726D+01 -0.187810D+01 -0.208589D+01  0.000000D+00
     44  0.000000D+00  0.000000D+00  0.000000D+00  0.000000D+00  0.113163D+01
     45  0.679379D+00  0.225606D+01 -0.143942D+01  0.251152D+01  0.000000D+00
     46  0.198185D+01  0.407512D+01 -0.779185D+00  0.174001D+01  0.000000D+00
     47  0.109999D+01  0.258845D+01  0.617469D-01  0.280881D+00  0.000000D+00
     48  0.466797D+00  0.138053D+01 -0.102316D-01  0.198408D+01  0.000000D+00
     49 -0.779847D+00 -0.222764D+01  0.187813D+01 -0.208634D+01  0.000000D+00
     50  0.000000D+00  0.000000D+00  0.000000D+00  0.000000D+00  0.113184D+01
     51  0.826697D-03  0.809147D-01  0.156904D+00  0.653986D-01  0.000000D+00
     52  0.317785D+00  0.104775D+01  0.100684D+01  0.404475D+00  0.000000D+00
     53  0.725963D+00  0.179570D+01  0.592775D+00  0.191577D+00  0.000000D+00
     54 -0.501956D-04 -0.711721D-01 -0.147891D+00 -0.720704D-01  0.000000D+00
     55 -0.249793D-04 -0.426898D-01 -0.984480D-01 -0.249165D-01  0.000000D+00
     56  0.000000D+00  0.000000D+00  0.000000D+00  0.000000D+00  0.154271D-01
     57  0.826697D-03  0.809146D-01  0.156904D+00 -0.653985D-01  0.000000D+00
     58  0.317784D+00  0.104775D+01  0.100684D+01 -0.404471D+00  0.000000D+00
     59  0.725963D+00  0.179569D+01  0.592775D+00 -0.191570D+00  0.000000D+00
     60 -0.501955D-04 -0.711721D-01 -0.147890D+00  0.720703D-01  0.000000D+00
     61  0.249793D-04  0.426897D-01  0.984479D-01 -0.249165D-01  0.000000D+00
     62  0.000000D+00  0.000000D+00  0.000000D+00  0.000000D+00  0.154271D-01
                6             7             8             9            10 
      6  0.761066D+01
      7  0.845698D+00  0.662553D+01
      8  0.967734D-05  0.589292D-05  0.586107D+01
      9  0.000000D+00  0.000000D+00  0.000000D+00  0.562609D+01
[...]
  57 6   H  1S         -0.34173   0.00000   0.15527   0.00000   0.00000
  58        2S          0.16088   0.00000  -0.44582   0.00000   0.00000
  59        3S          0.50005   0.00000  -0.21996   0.00000   0.00000
  60        4PX        -0.31417   0.00000   0.45442   0.00000   0.00000
  61        4PY        -0.00271   0.00000   0.20380   0.00000   0.00000
  62        4PZ         0.00000  -0.39765   0.00000   0.51621   0.49193
                          51        52        53        54        55
                           V         V         V         V         V
     Eigenvalues --     2.53952   2.59710   2.68605   2.75064   2.75964
   1 1   C  1S          0.07418   0.00000   0.00000  -0.03268   0.00007
   2        2S          0.15383   0.00000   0.00000  -0.01950   0.00000
   3        2PX        -0.61844   0.00000   0.00000  -0.17531   0.00036
   4        2PY        -0.00001   0.00000   0.00000   0.00067   0.37775
   5        2PZ         0.00000   0.05689   0.00002   0.00000   0.00000
   6        3S         -3.47698   0.00000   0.00000   0.56071  -0.00106
   7        3PX        -2.13092   0.00000   0.00000  -0.23876   0.00050
   8        3PY        -0.00009   0.00000   0.00000   0.00212   1.18171
   9        3PZ         0.00000  -0.05376   0.00003   0.00000   0.00000
  10        4S          5.30611   0.00000   0.00000  -0.11812   0.00062
  11        4PX         1.82498   0.00000   0.00000  -0.02235   0.00020
  12        4PY        -0.00007   0.00000   0.00000   0.00332   1.83964
  13        4PZ         0.00000  -0.00427  -0.00001   0.00000   0.00000
  14        5XX        -0.72243   0.00000   0.00000   0.37222  -0.00064
  15        5YY         0.11926   0.00000   0.00000  -0.41982   0.00070
  16        5ZZ         0.65990   0.00000   0.00000  -0.15603   0.00033
  17        5XY         0.00002   0.00000   0.00000   0.00068   0.38671
  18        5XZ         0.00000   0.76322  -0.00005   0.00000   0.00000
  19        5YZ         0.00000   0.00001   0.63083   0.00000   0.00000
  20 2   C  1S         -0.07417   0.00000   0.00000  -0.03269   0.00006
  21        2S         -0.15381   0.00000   0.00000  -0.01950  -0.00002
  22        2PX        -0.61845   0.00000   0.00000   0.17525  -0.00030
  23        2PY         0.00000   0.00000   0.00000  -0.00065  -0.37778
  24        2PZ         0.00000  -0.05689   0.00000   0.00000   0.00000
  25        3S          3.47687   0.00000   0.00000   0.56078  -0.00101
  26        3PX        -2.13096   0.00000   0.00000   0.23873  -0.00045
  27        3PY         0.00003   0.00000   0.00000  -0.00214  -1.18165
  28        3PZ         0.00000   0.05377  -0.00001   0.00000   0.00000
  29        4S         -5.30608   0.00000   0.00000  -0.11883  -0.00022
  30        4PX         1.82499   0.00000   0.00000   0.02253   0.00003
  31        4PY         0.00006   0.00000   0.00000  -0.00331  -1.83952
  32        4PZ         0.00000   0.00427   0.00001   0.00000   0.00000
  33        5XX         0.72241   0.00000   0.00000   0.37221  -0.00066
  34        5YY        -0.11927   0.00000   0.00000  -0.41985   0.00075
  35        5ZZ        -0.65984   0.00000   0.00000  -0.15606   0.00027
  36        5XY         0.00001   0.00000   0.00000   0.00072   0.38661
  37        5XZ         0.00000   0.76324  -0.00002   0.00000   0.00000
  38        5YZ         0.00000  -0.00005  -0.63069   0.00000   0.00000
  39 3   H  1S          0.13275   0.00000   0.00000   0.01915  -0.02871
  40        2S         -0.24986   0.00000   0.00000  -0.24917   1.05553
  41        3S          0.38211   0.00000   0.00000   0.06756   1.19911
  42        4PX         0.18938   0.00000   0.00000   0.38359   0.47117
  43        4PY        -0.26817   0.00000   0.00000  -0.35173   0.19213
  44        4PZ         0.00000   0.37586   0.46378   0.00000   0.00000
  45 4   H  1S          0.13280   0.00000   0.00000   0.01929   0.02868
  46        2S         -0.24973   0.00000   0.00000  -0.25297  -1.05457
  47        3S          0.38219   0.00000   0.00000   0.06323  -1.19939
  48        4PX         0.18943   0.00000   0.00000   0.38196  -0.47247
  49        4PY         0.26813   0.00000   0.00000   0.35238   0.19079
  50        4PZ         0.00000   0.37581  -0.46392   0.00000   0.00000
  51 5   H  1S         -0.13275   0.00000   0.00000   0.01914  -0.02870
  52        2S          0.24982   0.00000   0.00000  -0.24911   1.05543
  53        3S         -0.38222   0.00000   0.00000   0.06754   1.19902
  54        4PX         0.18940   0.00000   0.00000  -0.38362  -0.47114
  55        4PY        -0.26818   0.00000   0.00000   0.35169  -0.19214
  56        4PZ         0.00000  -0.37582   0.46374   0.00000   0.00000
  57 6   H  1S         -0.13274   0.00000   0.00000   0.01926   0.02862
  58        2S          0.24984   0.00000   0.00000  -0.25292  -1.05448
  59        3S         -0.38212   0.00000   0.00000   0.06324  -1.19920
  60        4PX         0.18943   0.00000   0.00000  -0.38192   0.47247
  61        4PY         0.26819   0.00000   0.00000  -0.35233  -0.19084
  62        4PZ         0.00000  -0.37590  -0.46372   0.00000   0.00000
                          56        57        58        59        60
                           V         V         V         V         V
     Eigenvalues --     3.00415   3.20385   3.34670   3.50630   3.75816
   1 1   C  1S         -0.05856  -0.05434   0.00003  -0.13178  -0.00002
   2        2S          0.64060   0.54383   0.00010   0.43144  -0.00002
   3        2PX         0.28980  -0.35511   0.00002  -0.58178   0.00005
   4        2PY         0.00001  -0.00005   0.72601   0.00025  -0.50887
   5        2PZ         0.00000   0.00000   0.00000   0.00000   0.00000
   6        3S          0.32594   0.51775  -0.00042   1.91677   0.00006
   7        3PX        -0.28456  -0.20646  -0.00016   0.36161   0.00001
   8        3PY        -0.00002  -0.00008   0.39568   0.00014  -0.71859
   9        3PZ         0.00000   0.00000   0.00000   0.00000   0.00000
  10        4S          1.38218   0.00663   0.00048  -0.99777  -0.00037
  11        4PX         0.25978   0.04673   0.00013  -0.23226  -0.00012
  12        4PY         0.00006   0.00007  -0.04376   0.00002  -0.61606
  13        4PZ         0.00000   0.00000   0.00000   0.00000   0.00000
  14        5XX         0.74973  -0.15685   0.00007  -0.69921   0.00001
  15        5YY        -0.42727   0.56028   0.00008   0.57101  -0.00013
  16        5ZZ        -0.44275  -0.38159   0.00007  -0.67419  -0.00002
  17        5XY         0.00001   0.00020  -0.66471  -0.00010   1.13668
  18        5XZ         0.00000   0.00000   0.00000   0.00000   0.00000
  19        5YZ         0.00000   0.00000   0.00000   0.00000   0.00000
  20 2   C  1S          0.05857  -0.05439  -0.00004   0.13176  -0.00001
  21        2S         -0.64056   0.54389   0.00019  -0.43120   0.00003
  22        2PX         0.28982   0.35524   0.00020  -0.58166   0.00002
  23        2PY         0.00000  -0.00021   0.72590   0.00015   0.50878
  24        2PZ         0.00000   0.00000   0.00000   0.00000   0.00000
  25        3S         -0.32603   0.51851   0.00061  -1.91661   0.00001
  26        3PX        -0.28459   0.20633  -0.00009   0.36165   0.00002
  27        3PY         0.00000  -0.00010   0.39566   0.00008   0.71858
  28        3PZ         0.00000   0.00000   0.00000   0.00000   0.00000
  29        4S         -1.38211   0.00624  -0.00044   0.99776   0.00032
  30        4PX         0.25976  -0.04662   0.00011  -0.23228  -0.00008
  31        4PY        -0.00002  -0.00004  -0.04397  -0.00004   0.61602
  32        4PZ         0.00000   0.00000   0.00000   0.00000   0.00000
  33        5XX        -0.74975  -0.15695  -0.00017   0.69911  -0.00004
  34        5YY         0.42735   0.56040   0.00029  -0.57073   0.00000
  35        5ZZ         0.44278  -0.38183  -0.00023   0.67404  -0.00003
  36        5XY         0.00000  -0.00011   0.66478   0.00021   1.13665
  37        5XZ         0.00000   0.00000   0.00000   0.00000   0.00000
  38        5YZ         0.00000   0.00000   0.00000   0.00000   0.00000
  39 3   H  1S         -0.01956  -0.34763   0.43576  -0.40505  -0.54496
  40        2S         -0.39023  -0.35550   0.40892  -0.34186  -0.49851
  41        3S         -0.04114   0.03812  -0.13097   0.08561  -0.36830
  42        4PX         0.17299  -0.42016   0.37513  -0.49023  -0.19756
  43        4PY        -0.45294  -0.55661   0.61099  -0.38153  -0.63749
  44        4PZ         0.00000   0.00000   0.00000   0.00000   0.00000
  45 4   H  1S         -0.01953  -0.34751  -0.43584  -0.40534   0.54508
  46        2S         -0.39026  -0.35537  -0.40893  -0.34213   0.49854
  47        3S         -0.04126   0.03797   0.13095   0.08564   0.36832
  48        4PX         0.17303  -0.42002  -0.37506  -0.49042   0.19750
  49        4PY         0.45291   0.55641   0.61115   0.38187  -0.63762
  50        4PZ         0.00000   0.00000   0.00000   0.00000   0.00000
  51 5   H  1S          0.01954  -0.34757  -0.43595   0.40489  -0.54497
  52        2S          0.39024  -0.35547  -0.40901   0.34183  -0.49852
  53        3S          0.04118   0.03807   0.13113  -0.08556  -0.36826
  54        4PX         0.17304   0.42013   0.37532  -0.49009   0.19759
  55        4PY        -0.45291   0.55648   0.61124  -0.38134   0.63751
  56        4PZ         0.00000   0.00000   0.00000   0.00000   0.00000
  57 6   H  1S          0.01954  -0.34775   0.43559   0.40512   0.54496
  58        2S          0.39023  -0.35571   0.40872   0.34198   0.49849
  59        3S          0.04117   0.03806  -0.13110  -0.08566   0.36828
  60        4PX         0.17305   0.42036  -0.37488  -0.49024  -0.19757
  61        4PY         0.45291  -0.55678   0.61082   0.38164   0.63750
  62        4PZ         0.00000   0.00000   0.00000   0.00000   0.00000
                          61        62
                           V         V
     Eigenvalues --     4.27535   4.52730
   1 1   C  1S         -0.34323   0.32166
   2        2S          2.07171  -1.90884
   3        2PX         0.21367   0.13461
   4        2PY        -0.00001   0.00005
   5        2PZ         0.00000   0.00000
   6        3S          1.04967  -1.55030
   7        3PX        -0.01133  -0.25308
   8        3PY         0.00006  -0.00002
   9        3PZ         0.00000   0.00000
  10        4S         -0.73086   3.03693
  11        4PX         0.01707   0.55264
  12        4PY         0.00001  -0.00002
  13        4PZ         0.00000   0.00000
  14        5XX        -1.29043   1.72314
  15        5YY        -1.53293   1.64508
  16        5ZZ        -1.25918   1.07871
  17        5XY        -0.00003   0.00001
  18        5XZ         0.00000   0.00000
  19        5YZ         0.00000   0.00000
  20 2   C  1S         -0.34322  -0.32166
  21        2S          2.07169   1.90894
  22        2PX        -0.21365   0.13462
  23        2PY        -0.00001   0.00000
  24        2PZ         0.00000   0.00000
  25        3S          1.04961   1.55028
  26        3PX         0.01132  -0.25309
  27        3PY        -0.00003   0.00002
  28        3PZ         0.00000   0.00000
  29        4S         -0.73092  -3.03692
  30        4PX        -0.01703   0.55264
  31        4PY        -0.00001   0.00002
  32        4PZ         0.00000   0.00000
  33        5XX        -1.29043  -1.72319
  34        5YY        -1.53286  -1.64504
  35        5ZZ        -1.25916  -1.07874
  36        5XY        -0.00002   0.00002
  37        5XZ         0.00000   0.00000
  38        5YZ         0.00000   0.00000
  39 3   H  1S          0.20392  -0.27351
  40        2S         -0.10417   0.04163
  41        3S          0.27413  -0.23241
  42        4PX         0.09372  -0.19632
  43        4PY         0.20242  -0.31178
  44        4PZ         0.00000   0.00000
  45 4   H  1S          0.20393  -0.27358
  46        2S         -0.10427   0.04167
  47        3S          0.27416  -0.23239
  48        4PX         0.09368  -0.19632
  49        4PY        -0.20239   0.31180
  50        4PZ         0.00000   0.00000
  51 5   H  1S          0.20390   0.27349
  52        2S         -0.10417  -0.04164
  53        3S          0.27410   0.23239
  54        4PX        -0.09370  -0.19629
  55        4PY        -0.20241  -0.31177
  56        4PZ         0.00000   0.00000
  57 6   H  1S          0.20388   0.27351
  58        2S         -0.10421  -0.04162
  59        3S          0.27411   0.23240
  60        4PX        -0.09369  -0.19630
  61        4PY         0.20238   0.31179
  62        4PZ         0.00000   0.00000
          Condensed to atoms (all electrons):
              1          2          3          4          5          6
     1  C    4.817610   0.701392   0.390250   0.390256  -0.024230  -0.024234
     2  C    0.701392   4.817642  -0.024238  -0.024239   0.390241   0.390245
     3  H    0.390250  -0.024238   0.562642  -0.045178   0.014065  -0.023064
     4  H    0.390256  -0.024239  -0.045178   0.562642  -0.023066   0.014066
     5  H   -0.024230   0.390241   0.014065  -0.023066   0.562645  -0.045177
     6  H   -0.024234   0.390245  -0.023064   0.014066  -0.045177   0.562644
 Mulliken atomic charges:
              1
     1  C   -0.251043
     2  C   -0.251044
     3  H    0.125523
     4  H    0.125520
     5  H    0.125523
     6  H    0.125520
 Sum of Mulliken atomic charges =   0.00000
 Mulliken charges with hydrogens summed into heavy atoms:
              1
     1  C    0.000000
     2  C    0.000000
 Sum of Mulliken charges with hydrogens summed into heavy atoms =   0.00000
 Electronic spatial extent (au):  <R**2>=            783.0062
 Charge=              0.0000 electrons
 Dipole moment (field-independent basis, Debye):
    X=              0.0000    Y=              0.0000    Z=              0.0000  Tot=              0.0000
 Quadrupole moment (field-independent basis, Debye-Ang):
   XX=            -12.5288   YY=            -12.3490   ZZ=            -15.9687
   XY=              0.0001   XZ=              0.0000   YZ=              0.0001
 Traceless Quadrupole moment (field-independent basis, Debye-Ang):
   XX=              1.0867   YY=              1.2665   ZZ=             -2.3532
   XY=              0.0001   XZ=              0.0000   YZ=              0.0001
 Octapole moment (field-independent basis, Debye-Ang**2):
  XXX=             -0.0002  YYY=              0.0002  ZZZ=           -167.6710  XYY=             -0.0002
  XXY=             -0.0001  XXZ=            -43.8506  XZZ=             -0.0001  YZZ=              0.0004
  YYZ=            -43.2215  XYZ=              0.0003
 Hexadecapole moment (field-independent basis, Debye-Ang**3):
 XXXX=            -70.6774 YYYY=            -28.3377 ZZZZ=          -1195.9655 XXXY=              0.0001
 XXXZ=             -0.0005 YYYX=             -0.0002 YYYZ=              0.0005 ZZZX=             -0.0015
 ZZZY=              0.0017 XXYY=            -14.0843 XXZZ=           -169.9057 YYZZ=           -160.3614
 XXYZ=             -0.0004 YYXZ=             -0.0007 ZZXY=              0.0009
 N-N= 3.339982817154D+01 E-N=-2.480729943335D+02  KE= 7.778585094196D+01
 Orbital energies and kinetic energies (alpha):
                                 1                 2
   1         O               -10.193906         15.874549
   2         O               -10.193027         15.887052
   3         O                -0.766169          1.547098
   4         O                -0.584664          1.295026
   5         O                -0.476993          0.939953
   6         O                -0.421615          1.280038
   7         O                -0.363522          1.055656
   8         O                -0.278015          1.013553
   9         V                -0.009130          0.955862
  10         V                 0.000017          0.206894
  11         V                 0.018866          0.199748
  12         V                 0.021521          0.181321
  13         V                 0.055467          0.140306
  14         V                 0.069195          0.276274
  15         V                 0.082252          0.217906
  16         V                 0.128311          0.230650
  17         V                 0.128557          0.583928
  18         V                 0.134336          0.334081
  19         V                 0.148432          0.429921
  20         V                 0.163938          0.561534
  21         V                 0.182001          0.874437
  22         V                 0.182117          0.462163
  23         V                 0.201821          0.796547
  24         V                 0.249547          0.871794
  25         V                 0.387383          1.487363
  26         V                 0.419728          1.190450
  27         V                 0.578207          1.572466
  28         V                 0.674060          2.098917
  29         V                 0.721318          2.279366
  30         V                 0.737175          1.910165
  31         V                 0.819919          2.767754
  32         V                 0.896921          2.168661
  33         V                 0.919066          1.930238
  34         V                 0.946738          2.495680
  35         V                 0.973651          2.282922
  36         V                 0.996405          2.463692
  37         V                 1.164321          2.260756
  38         V                 1.254215          2.314321
  39         V                 1.372723          2.395628
  40         V                 1.382861          2.516055
  41         V                 1.515650          2.504973
  42         V                 1.859682          3.005859
  43         V                 1.928214          3.105466
  44         V                 1.989340          3.170658
  45         V                 2.011371          2.970342
  46         V                 2.086854          3.197320
  47         V                 2.143648          3.096160
  48         V                 2.240810          3.135482
  49         V                 2.357599          3.238681
  50         V                 2.452959          3.367108
  51         V                 2.539518          4.106286
  52         V                 2.597096          3.671558
  53         V                 2.686054          3.678426
  54         V                 2.750641          3.779638
  55         V                 2.759643          3.981847
  56         V                 3.004151          4.480115
  57         V                 3.203852          4.712427
  58         V                 3.346698          5.095417
  59         V                 3.506302          5.591280
  60         V                 3.758157          5.384106
  61         V                 4.275352         10.151700
  62         V                 4.527305          9.554991
 Total kinetic energy from orbitals= 7.778585094196D+01

 Test job not archived.
 1|1|UNPC-DESKTOP-I8A3P4U|SP|RB3LYP|6-31++G(d,p)|C2H4|ASUS|06-Apr-2022|
 0||# SP B3LYP/6-31++G** IOP(3/33=1) IOP(6/7=3) Symmetry=None MaxDisk=2
 GB||ethylene_cofacial_m2||0,1|C,0,-0.6672,0.,3.5|C,0,0.6672,0.,3.5|H,0
 ,-1.2213,-0.929,3.5|H,0,-1.2212,0.929,3.5|H,0,1.2213,0.929,3.5|H,0,1.2
 213,-0.929,3.5||Version=IA32W-G09RevA.02|HF=-78.5994731|RMSD=8.908e-01
 0|Dipole=0.000001,0.0000096,0.|Quadrupole=0.8079501,0.9415951,-1.74954
 51,0.0000625,0.0000065,0.0000636|PG=CS [SG(C2H4)]||@


 FLOATING POINT NUMBERS ARE LIKE SANDPILES:
 EVERY TIME THAT YOU MOVE ONE, YOU LOSE A LITTLE SAND 
 AND YOU PICK UP A LITTLE DIRT.
 Job cpu time:  0 days  0 hours  0 minutes  3.0 seconds.
 File lengths (MBytes):  RWF=      5 Int=      0 D2E=      0 Chk=      1 Scr=      1
 Normal termination of Gaussian 09 at Wed Apr 06 21:44:22 2022.
